LAMMPS (8 Aug 2014)
WARNING: OMP_NUM_THREADS environment is not set. (../comm.cpp:88)
  using 1 OpenMP thread(s) per MPI task
# Bead-spring polymer simulation with small-molecule diffusion - lj
# 160-mers
# 25 chains
# FENE potential repulsive all sites, with interactive temperature

units lj

shell	       echo 1.0 > Tempfile.txt
shell	       echo 1.0 > Bondfile.txt

variable       myTempStr file Tempfile.txt
variable       myTemp equal v_myTempStr

variable       myBondStr file Bondfile.txt
variable       myBond equal v_myBondStr

neighbor	0.4 bin
neigh_modify	every 1 delay 5 check yes

atom_style 	molecular

# soft potential for initial pushoff
pair_style	lj/cut 1.12246
pair_modify	shift yes
bond_style	fene

# filename of the data-file (or restart-file) to be used
#read_data	newdataNbead160.txt
read_restart	restartsoft1
WARNING: Restart file used different # of processors (../read_restart.cpp:704)
  orthogonal box = (-8.37884 -8.37884 -8.37884) to (8.37884 8.37884 8.37884)
  1 by 2 by 2 MPI processor grid
  4000 atoms
  3975 bonds
  2 = max # of 1-2 neighbors
  2 = max # of 1-3 neighbors
  4 = max # of 1-4 neighbors
  6 = max # of special neighbors

# pair coefficients
pair_coeff	* * 1.0 1.0
#pair_coeff	* * 10.0

bond_coeff	1 30.0 1.5 1.0 1.0

#special_bonds	lj 0.0 1.0 1.0

# set the timestep in the specified units
timestep	0.001

thermo_style	one

# set the parameters here
fix 1 all nve/limit 0.01
#fix 2 all temp/rescale 1 0.0 1.0 0.05 1.0
fix 3 all langevin v_myTemp 1.0 1.0 39253

thermo		100
run 10000
WARNING: Use special bonds = 0,1,1 with bond style fene (../bond_fene.cpp:188)
Memory usage per processor = 5.26375 Mbytes
Step Temp E_pair E_mol TotEng Press 
    5000   0.98808728 0.0036475406     20.60034    22.085748   0.69344351 
    5100   0.97990181  0.013518659    20.594025    22.077029  -0.28512534 
    5200   0.96897318   0.03938576    20.608113    22.100595  0.093899196 
    5300   0.96681325  0.069915233     20.60006    22.119833   0.39779209 
    5400   0.94989169  0.094593829    20.615393    22.134469    0.2573012 
    5500   0.94459383   0.11543703    20.608656    22.140629   0.36030627 
    5600    0.9491041   0.12997428    20.609728    22.163002   0.44901952 
    5700   0.94295293     0.140329    20.605253    22.159657   0.57832624 
    5800   0.95556968   0.14929125     20.59463    22.176918   0.21204909 
    5900   0.94761552   0.15530561    20.600795    22.177169   0.24099708 
    6000   0.94453671    0.1645705    20.593707    22.174728       0.3079 
    6100   0.96028537   0.17078479    20.586916    22.197769   0.19302125 
    6200   0.95934641   0.17140869    20.584374    22.194443  0.092353013 
    6300   0.96877084   0.16993426    20.585649    22.208376   0.27799043 
    6400   0.98093661   0.16994672     20.60529    22.246274   0.40817634 
    6500   0.98595927   0.16922314    20.590296    22.238088   0.38589673 
    6600   0.97844013   0.16884746    20.604953    22.241094   0.18615073 
    6700    0.9824843   0.17082156    20.613169    22.257349   0.30440573 
    6800   0.99982606   0.17335835    20.596334    22.269056   0.49609055 
    6900   0.98228383   0.17752694    20.614975    22.265559   0.15381672 
    7000   0.98951407   0.17734281    20.596818     22.25806   0.21200004 
    7100    1.0051645    0.1739203    20.599473    22.280763   0.48749062 
    7200    1.0110822   0.17172677    20.598394    22.286365   0.31571529 
    7300   0.98592854   0.17696584    20.611383    22.266872 -0.0069105946 
    7400   0.99741532   0.17577103    20.602631    22.274151   0.65618747 
    7500   0.99848158   0.17396979    20.591742    22.263059   0.37372009 
    7600   0.99975566   0.17807055    20.595399    22.272728   0.41129755 
    7700   0.98812457   0.18208166    20.597042     22.26094   0.14964853 
    7800   0.97621949   0.18503941    20.596396    22.245398   0.47031287 
    7900   0.99035604   0.18047794    20.597652    22.263293   0.28781646 
    8000   0.99377815   0.18109212    20.589308    22.260695   0.31773386 
    8100   0.99392996   0.18396159     20.59479    22.269274   0.20786927 
    8200   0.98607706   0.18573286    20.599816    22.264295   0.23232462 
    8300    1.0002002   0.19144934    20.578535     22.26991   0.25700242 
    8400   0.98158732   0.19260252     20.59423    22.258845   0.47786097 
    8500    1.0017446   0.19074355    20.591386    22.284371   0.30985266 
    8600   0.99255138   0.19006322    20.585339    22.263857   0.20441079 
    8700    1.0014088   0.19011169     20.58542    22.277269   0.25754304 
    8800    1.0069744   0.18807519    20.570969    22.269128   0.46621399 
    8900    0.9961911   0.18898371    20.596896    22.279793   0.36876396 
    9000   0.99920936   0.18968227    20.581552    22.269674   0.13756699 
    9100   0.98823612   0.18789284     20.60658    22.276457   0.41845964 
    9200   0.98253682   0.18619015    20.602821    22.262448   0.25138864 
    9300   0.99870743   0.18714831    20.590993    22.275828   0.35828761 
    9400   0.98798576   0.19200849    20.603854    22.277471   0.34130401 
    9500    1.0002396   0.19207044    20.579326    22.271381   0.47738255 
    9600   0.99323091   0.19164922    20.605797     22.28692   0.25319887 
    9700    1.0138309   0.19225823    20.581237    22.293862   0.20099668 
    9800   0.99900031   0.19382337    20.598754    22.290703   0.27506958 
    9900    1.0121928    0.1913584    20.588706    22.297974   0.23439994 
   10000    1.0027409    0.1886599    20.598332    22.290727   0.44511725 
   10100    1.0106368   0.18866294    20.591298    22.295537   0.41814945 
   10200   0.98998805   0.19220561    20.603006    22.279822   0.28773737 
   10300    1.0067697    0.1956187    20.586335     22.29173   0.39496888 
   10400   0.99249458   0.19753615    20.585799    22.271705   0.20846173 
   10500   0.99237117   0.19479835    20.606283    22.289266   0.43110813 
   10600   0.99052248   0.19296946    20.595412    22.273794   0.31352305 
   10700    1.0036326   0.19502149    20.589843    22.289937   0.26235713 
   10800    1.0026897   0.19593723    20.580547    22.280143   0.36072736 
   10900   0.99455099    0.1918531    20.602313     22.28562   0.17037864 
   11000    1.0050128   0.19061155    20.583814    22.281567   0.56312496 
   11100   0.99596592   0.19503995    20.584838    22.273453   0.17287555 
   11200   0.98715762   0.19460025    20.591235    22.266202   0.45952169 
   11300   0.98983574   0.19327085    20.604958    22.282611  0.098192821 
   11400   0.99200365   0.19328286    20.606095    22.287011   0.36117158 
   11500    1.0012605    0.1941162    20.597864    22.293496   0.40439361 
   11600    1.0021672   0.19359062    20.599001    22.295467   0.24173653 
   11700    1.0084487   0.18815897    20.604925    22.305379   0.33150519 
   11800   0.99957609   0.18652491    20.584024    22.269538   0.42569036 
   11900   0.99217743   0.18570065    20.604311    22.277905   0.27801612 
   12000   0.97913089     0.185157    20.604973     22.25846   0.46548664 
   12100    1.0016748   0.18608854    20.595602    22.283827   0.34748949 
   12200   0.99387516   0.18744256    20.601473    22.279355   0.49306948 
   12300   0.97728574   0.19211044     20.60191    22.259583   0.38402285 
   12400   0.97724138   0.19393178    20.592727    22.252154   0.12088477 
   12500   0.98293402   0.19347192    20.581466     22.24897   0.34627474 
   12600   0.97647174   0.19401399    20.591815    22.250171   0.19057446 
   12700   0.98328127     0.196404    20.598911    22.269869   0.59556812 
   12800    1.0049765   0.19964621    20.595733    22.302467   0.33832181 
   12900   0.99686376   0.20171166    20.604712    22.301346   0.29953103 
   13000    1.0015447    0.2015841    20.597733    22.301258   0.24957335 
   13100    1.0000449   0.20091902    20.597789      22.2984    0.3257071 
   13200    1.0078729   0.19977444     20.58888    22.300086    0.4623443 
   13300   0.99181622   0.20037528    20.601922     22.28965   0.22023098 
   13400    0.9949437   0.19751068    20.588075    22.277628   0.75765465 
   13500   0.97609949   0.19403114    20.594064    22.251878  0.094047627 
   13600   0.98879742   0.19403166    20.580601    22.257458   0.23842535 
   13700   0.98796163   0.19354856    20.580594    22.255714   0.41930904 
   13800   0.97881601   0.18997545    20.591805    22.249638   0.35616988 
   13900    0.9881062   0.18337111    20.584011    22.249171   0.10582359 
   14000    0.9904292   0.18087977    20.577164    22.243316   0.32758694 
   14100   0.99084768   0.18106363    20.581173    22.248137   0.22732749 
   14200   0.99752369   0.18560837     20.57276     22.25428   0.54718248 
   14300    0.9864447   0.19050043    20.577489    22.247287    0.4394642 
   14400   0.99074965   0.19075037     20.57484    22.251343   0.46041934 
   14500    1.0033975   0.19125594    20.572903    22.268879   0.22765517 
   14600    1.0038108   0.18841955    20.581314    22.275073   0.28312829 
   14700    1.0060779   0.18941787    20.578356    22.276514   0.31645445 
   14800    1.0156554   0.18956254    20.587103    22.299768   0.38138251 
   14900     1.014026    0.1922565    20.590012    22.302927   0.13675593 
   15000    1.0179502   0.19278949    20.583121    22.302454    0.4854831 
Loop time of 2.99803 on 4 procs (4 MPI x 1 OpenMP) for 10000 steps with 4000 atoms

Pair  time (%) = 0.821987 (27.4175)
Bond  time (%) = 0.302581 (10.0927)
Neigh time (%) = 0.173366 (5.78266)
Comm  time (%) = 0.816732 (27.2422)
Outpt time (%) = 0.00409049 (0.136439)
Other time (%) = 0.879278 (29.3285)

Nlocal:    1000 ave 1062 max 940 min
Histogram: 1 1 0 0 0 0 0 1 0 1
Nghost:    1075 ave 1122 max 1043 min
Histogram: 2 0 0 0 0 1 0 0 0 1
Neighs:    3046.25 ave 3483 max 2602 min
Histogram: 1 0 1 0 0 0 0 1 0 1

Total # of neighbors = 12185
Ave neighs/atom = 3.04625
Ave special neighs/atom = 5.925
Neighbor list builds = 210
Dangerous builds = 0

unfix 1

fix 4 all nve

# set Interactive Molecular Dynamics

fix comm all imd 5678 trate 5 unwrap on #fscale #10.0

reset_timestep 	0

# change the 8000 to change how often to save the positions of the atoms
#dump 		1 all custom 500 position_imd.lammpstrj id type xs ys zs ix iy iz

# how often to output thermodynamic data

# how often to outout restart files and their names
#restart       5000000 restartimd1 restartimd2

label          loop2here

# specifies the run length in timesteps
run            2000
WARNING: Use special bonds = 0,1,1 with bond style fene (../bond_fene.cpp:188)
Memory usage per processor = 5.5915 Mbytes
Step Temp E_pair E_mol TotEng Press 
       0    1.0179502   0.19278949    20.583121    22.302454    0.4854831 
     100    1.0037566   0.19203738    20.588072    22.285368   0.43052955 
     200   0.99850199   0.19439706    20.592542    22.284317   0.11713909 
     300   0.99958371   0.19248372    20.595525    22.287009    0.3777566 
     400   0.99542231   0.19392158    20.601473    22.288155   0.35331449 
     500    0.9963099   0.19401477    20.595736    22.283842   0.64442582 
     600   0.99418228   0.19194052    20.581155    22.263996   0.47744785 
     700   0.98956743   0.18767831    20.591833    22.263492   0.13260873 
     800    1.0024351   0.18407994    20.580823     22.26818   0.29452201 
     900   0.99059032   0.18575944    20.586936    22.258209   0.21165494 
    1000   0.98134021   0.18555941    20.583334    22.240536   0.20653011 
    1100   0.97963718   0.18330452    20.574315    22.226708   0.64621215 
    1200   0.97892888   0.18509295    20.579158    22.232277   0.20361632 
    1300   0.97570641   0.18469297    20.584922    22.232809   0.18752595 
    1400   0.98453953   0.18910749    20.571856    22.237403   0.25652121 
    1500   0.98185952   0.19506816     20.58464     22.25213   0.43010527 
    1600    0.9825982   0.19793296    20.582484    22.253946   0.21587512 
    1700   0.99781172   0.19741004    20.588144    22.281898   0.52871453 
    1800   0.97566747   0.19678487    20.615476    22.275397   0.31400295 
    1900   0.98809257   0.19304414    20.604225    22.279038   0.26501666 
    2000    0.9831305   0.19171771    20.607013    22.273058   0.34362205 
Loop time of 0.510395 on 4 procs (4 MPI x 1 OpenMP) for 2000 steps with 4000 atoms

Pair  time (%) = 0.143813 (28.1769)
Bond  time (%) = 0.0477731 (9.36003)
Neigh time (%) = 0.0292546 (5.73175)
Comm  time (%) = 0.114372 (22.4086)
Outpt time (%) = 0.000967443 (0.189548)
Other time (%) = 0.174214 (34.1332)

Nlocal:    1000 ave 1051 max 932 min
Histogram: 1 0 0 0 1 0 0 0 1 1
Nghost:    1070.25 ave 1091 max 1050 min
Histogram: 1 0 0 0 1 1 0 0 0 1
Neighs:    3082 ave 3401 max 2752 min
Histogram: 1 0 1 0 0 0 0 0 1 1

Total # of neighbors = 12328
Ave neighs/atom = 3.082
Ave special neighs/atom = 5.925
Neighbor list builds = 41
Dangerous builds = 0
shell          head -n 2 Temp.txt | tail -n 1 >> Tempfile.txt
shell          head -n 2 Bond.txt | tail -n 1 >> Bondfile.txt
next           myTempStr
next           myBondStr
if "${myBond} <= 0" then "jump imdinput.txt nobonds"
jump           imdinput.txt loop2here

# specifies the run length in timesteps
run            2000
WARNING: Use special bonds = 0,1,1 with bond style fene (../bond_fene.cpp:188)
Memory usage per processor = 5.58955 Mbytes
Step Temp E_pair E_mol TotEng Press 
    2000    0.9831305   0.19171771    20.607013    22.273058   0.34362205 
    2100   0.99135566   0.19162306    20.600327    22.278612   0.38858577 
    2200    1.0000312   0.19072183     20.59701    22.287403    0.2341788 
    2300    1.0037272   0.18793344    20.601404    22.294552   0.30557911 
    2400    1.0119568   0.18601154    20.611754    22.315321   0.52535603 
    2500    1.0199711   0.18776766     20.58443    22.301772    0.2895044 
    2600   0.99418999   0.18974657    20.609124    22.289783   0.42719608 
    2700   0.98492639   0.19553049    20.605738    22.278288   0.41746663 
    2800      1.00317   0.19943211    20.589807    22.293618   0.22071575 
    2900    1.0028555   0.19895416    20.575542    22.278404   0.48526509 
    3000   0.98724405   0.19527236    20.615288    22.291056   0.31043748 
    3100    1.0039017   0.18898748    20.600116    22.294579  0.099895043 
    3200    1.0045702   0.18483652    20.606519    22.297834   0.39999234 
    3300   0.99567169   0.18526829    20.621013    22.299416   0.24043159 
    3400   0.99486108   0.18998369    20.600562    22.282464    0.3246511 
    3500    0.9990276   0.19084893    20.594479    22.283495   0.45672875 
    3600    1.0013209     0.191233    20.599454    22.292293   0.35431753 
    3700   0.98241197   0.19117802    20.619416    22.283844   0.33339042 
    3800    1.0025479   0.19263285    20.592067    22.288146   0.26594008 
    3900    1.0053509   0.19235432    20.605509    22.305513   0.39822031 
    4000    1.0013142    0.1919968    20.593996    22.287588   0.53962799 
Loop time of 0.470288 on 4 procs (4 MPI x 1 OpenMP) for 2000 steps with 4000 atoms

Pair  time (%) = 0.136677 (29.0625)
Bond  time (%) = 0.0451567 (9.60192)
Neigh time (%) = 0.027351 (5.81581)
Comm  time (%) = 0.0982337 (20.888)
Outpt time (%) = 0.000901103 (0.191607)
Other time (%) = 0.161968 (34.4402)

Nlocal:    1000 ave 1054 max 937 min
Histogram: 1 0 0 1 0 0 0 0 1 1
Nghost:    1091.5 ave 1146 max 1052 min
Histogram: 1 0 0 2 0 0 0 0 0 1
Neighs:    3058.5 ave 3399 max 2657 min
Histogram: 1 0 1 0 0 0 0 0 1 1

Total # of neighbors = 12234
Ave neighs/atom = 3.0585
Ave special neighs/atom = 5.925
Neighbor list builds = 41
Dangerous builds = 0
shell          head -n 2 Temp.txt | tail -n 1 >> Tempfile.txt
shell          head -n 2 Bond.txt | tail -n 1 >> Bondfile.txt
next           myTempStr
next           myBondStr
if "${myBond} <= 0" then "jump imdinput.txt nobonds"
jump           imdinput.txt loop2here

# specifies the run length in timesteps
run            2000
WARNING: Use special bonds = 0,1,1 with bond style fene (../bond_fene.cpp:188)
Memory usage per processor = 5.59077 Mbytes
Step Temp E_pair E_mol TotEng Press 
    4000    1.0013142    0.1919968    20.593996    22.287588   0.53962799 
    4100     1.008493   0.19301197    20.581583    22.286957   0.44265258 
    4200   0.99839281   0.19370501    20.593092    22.284012   0.30889117 
    4300   0.99562601   0.19901669    20.603777     22.29586   0.37983662 
    4400    1.0105105   0.19859891    20.587489    22.301475   0.21353574 
    4500   0.99524029   0.19501076    20.596719    22.284217   0.20149796 
    4600   0.99788962   0.18966818    20.597024    22.283152   0.44329939 
    4700    1.0059077   0.18816909    20.591619    22.288272   0.30449644 
    4800    1.0020137   0.18779893    20.594695    22.285139   0.25152482 
    4900   0.99950177   0.18649486    20.601147    22.286519    0.3468488 
    5000    1.0094012   0.18723833    20.591221    22.292183   0.34787029 
    5100    1.0257266   0.18397376     20.58921    22.311389   0.38844027 
    5200   0.99986249   0.18528772    20.610613     22.29532  0.024299996 
    5300    1.0168551   0.18422843    20.584631    22.293761   0.53068906 
    5400    0.9935933    0.1858801    20.602216    22.278113   0.40058459 
    5500   0.99782201   0.18912956      20.5961    22.281589  0.051333279 
    5600   0.99040434   0.19255997    20.600571    22.278366   0.62224309 
    5700   0.97988858   0.19634747    20.598182    22.263995   0.23484964 
    5800   0.96770866   0.19702034     20.59691     22.24513   0.12613335 
    5900   0.98139133   0.19348579    20.595206    22.260411    0.1683285 
    6000   0.98621595   0.19286034    20.596822    22.268636   0.38862281 
Loop time of 0.462389 on 4 procs (4 MPI x 1 OpenMP) for 2000 steps with 4000 atoms

Pair  time (%) = 0.136797 (29.5848)
Bond  time (%) = 0.0453286 (9.80312)
Neigh time (%) = 0.0269623 (5.83108)
Comm  time (%) = 0.0918531 (19.8649)
Outpt time (%) = 0.000918448 (0.198631)
Other time (%) = 0.16053 (34.7175)

Nlocal:    1000 ave 1034 max 981 min
Histogram: 1 1 0 1 0 0 0 0 0 1
Nghost:    1070.75 ave 1151 max 1023 min
Histogram: 1 1 0 1 0 0 0 0 0 1
Neighs:    3082 ave 3366 max 2824 min
Histogram: 1 0 0 1 0 1 0 0 0 1

Total # of neighbors = 12328
Ave neighs/atom = 3.082
Ave special neighs/atom = 5.925
Neighbor list builds = 41
Dangerous builds = 0
shell          head -n 2 Temp.txt | tail -n 1 >> Tempfile.txt
shell          head -n 2 Bond.txt | tail -n 1 >> Bondfile.txt
next           myTempStr
next           myBondStr
if "${myBond} <= 0" then "jump imdinput.txt nobonds"
jump           imdinput.txt loop2here

# specifies the run length in timesteps
run            2000
WARNING: Use special bonds = 0,1,1 with bond style fene (../bond_fene.cpp:188)
Memory usage per processor = 5.58564 Mbytes
Step Temp E_pair E_mol TotEng Press 
    6000   0.98621595   0.19286034    20.596822    22.268636   0.38862281 
    6100   0.99175067   0.19370791    20.589602    22.270564   0.56419091 
    6200   0.99116778   0.19634715    20.587006    22.269733   0.35315829 
    6300   0.96818699   0.20036536    20.606244    22.258527   0.13306888 
    6400   0.98436253   0.19764331    20.587693    22.261511   0.40799635 
    6500   0.99129636   0.19611679    20.583868    22.266557   0.14665825 
    6600   0.99185593    0.1969156    20.580813    22.265141   0.57087068 
    6700    0.9829875   0.20101586    20.586139    22.261268   0.33014684 
    6800   0.97813228   0.20478947    20.589806    22.261427   0.25370015 
    6900   0.97871845   0.20841731    20.592181    22.268309   0.23786828 
    7000   0.97865998   0.20354644    20.613716    22.284885   0.19232879 
    7100   0.98712169   0.19879288    20.597415     22.27652   0.35768214 
    7200   0.99843635   0.19453986    20.588773    22.280593   0.37634582 
    7300   0.98689327   0.19239572    20.589422    22.261788   0.45556581 
    7400    0.9842408   0.19035181    20.579251    22.245595   0.29737698 
    7500   0.97783004   0.18731724    20.590183    22.243879   0.29897876 
    7600   0.98786604   0.18600427    20.584408    22.251841   0.35005022 
    7700   0.99562093   0.18768294    20.582043    22.262784   0.42360658 
    7800   0.98366137   0.19034538    20.592546    22.258014    0.1852447 
    7900   0.99501908    0.1929785    20.592685    22.277819   0.29485225 
    8000    1.0022728   0.19140433    20.580643    22.275081   0.33918595 
Loop time of 0.460026 on 4 procs (4 MPI x 1 OpenMP) for 2000 steps with 4000 atoms

Pair  time (%) = 0.137243 (29.8338)
Bond  time (%) = 0.0453781 (9.86427)
Neigh time (%) = 0.0255813 (5.56084)
Comm  time (%) = 0.0916554 (19.924)
Outpt time (%) = 0.000936389 (0.203552)
Other time (%) = 0.159231 (34.6136)

Nlocal:    1000 ave 1021 max 967 min
Histogram: 1 0 0 0 0 1 0 0 1 1
Nghost:    1074.5 ave 1118 max 1030 min
Histogram: 1 0 0 0 1 1 0 0 0 1
Neighs:    3062.75 ave 3184 max 2904 min
Histogram: 1 0 0 0 1 0 0 1 0 1

Total # of neighbors = 12251
Ave neighs/atom = 3.06275
Ave special neighs/atom = 5.925
Neighbor list builds = 40
Dangerous builds = 0
shell          head -n 2 Temp.txt | tail -n 1 >> Tempfile.txt
shell          head -n 2 Bond.txt | tail -n 1 >> Bondfile.txt
next           myTempStr
next           myBondStr
if "${myBond} <= 0" then "jump imdinput.txt nobonds"
jump           imdinput.txt loop2here

# specifies the run length in timesteps
run            2000
WARNING: Use special bonds = 0,1,1 with bond style fene (../bond_fene.cpp:188)
Memory usage per processor = 5.58222 Mbytes
Step Temp E_pair E_mol TotEng Press 
    8000    1.0022728   0.19140433    20.580643    22.275081   0.33918595 
    8100   0.98195163    0.1924378     20.60403    22.269027   0.32238082 
    8200   0.97381056   0.19162419    20.619995     22.27197   0.48567301 
    8300   0.99974337   0.19500953    20.588996    22.283245   0.31817713 
    8400    1.0109762   0.19579284    20.584488    22.296366   0.46419025 
    8500   0.98043934   0.19710627    20.602938    22.270336   0.31225959 
    8600    0.9914934   0.19974041    20.592967    22.279576   0.36177205 
    8700   0.99497309   0.19924519    20.584407    22.275739   0.38739053 
    8800   0.99559393   0.20015513    20.606562    22.299734   0.34761728 
    8900    1.0135538   0.19794982    20.587711    22.305611   0.46243386 
    9000   0.99353364   0.19751284    20.613797    22.301238  0.074407339 
    9100    1.0198483   0.19233267    20.589597    22.311319   0.25846806 
    9200   0.99604456   0.19014519    20.587906    22.271745   0.27415805 
    9300    1.0000113   0.19135355    20.580058    22.271053   0.56032176 
    9400   0.98657471    0.1953801    20.585221    22.260093   0.27982875 
    9500   0.97095864   0.19748111    20.610763    22.264318   0.20105337 
    9600   0.98467522   0.19575251    20.592677    22.265073   0.28603356 
    9700   0.99256269   0.19501262    20.590675    22.274159   0.37169508 
    9800    1.0055888   0.19536423    20.577811    22.281182      0.34708 
    9900   0.99297626   0.19706451    20.599546    22.285703   0.50161876 
   10000    1.0139646   0.19632679    20.584478    22.301371    0.3233868 
Loop time of 0.461263 on 4 procs (4 MPI x 1 OpenMP) for 2000 steps with 4000 atoms

Pair  time (%) = 0.137061 (29.7142)
Bond  time (%) = 0.0454009 (9.84274)
Neigh time (%) = 0.0267977 (5.80964)
Comm  time (%) = 0.0910572 (19.7408)
Outpt time (%) = 0.000931501 (0.201946)
Other time (%) = 0.160015 (34.6907)

Nlocal:    1000 ave 1036 max 979 min
Histogram: 2 0 0 1 0 0 0 0 0 1
Nghost:    1079.25 ave 1113 max 1047 min
Histogram: 1 0 1 0 0 0 1 0 0 1
Neighs:    3088.75 ave 3278 max 2934 min
Histogram: 1 0 0 1 1 0 0 0 0 1

Total # of neighbors = 12355
Ave neighs/atom = 3.08875
Ave special neighs/atom = 5.925
Neighbor list builds = 41
Dangerous builds = 0
shell          head -n 2 Temp.txt | tail -n 1 >> Tempfile.txt
shell          head -n 2 Bond.txt | tail -n 1 >> Bondfile.txt
next           myTempStr
next           myBondStr
if "${myBond} <= 0" then "jump imdinput.txt nobonds"
jump           imdinput.txt loop2here

# specifies the run length in timesteps
run            2000
WARNING: Use special bonds = 0,1,1 with bond style fene (../bond_fene.cpp:188)
Memory usage per processor = 5.58686 Mbytes
Step Temp E_pair E_mol TotEng Press 
   10000    1.0139646   0.19632679    20.584478    22.301371    0.3233868 
   10100    0.9973006   0.19244165    20.595406    22.283425   0.28048765 
   10200    1.0085558   0.18948253     20.58931    22.291248  0.072219454 
   10300     1.004763   0.18963166    20.583407    22.279807   0.16436408 
   10400    1.0076846    0.1878804    20.586396    22.285425   0.14627537 
   10500    1.0013758   0.18076926    20.592452     22.27491   0.54806544 
   10600    1.0073167   0.18304225     20.60975    22.303389  0.028585187 
   10700    1.0230757    0.1854983    20.581514    22.301243   0.53636329 
   10800   0.99923994   0.18574587    20.617661    22.301892   0.37212597 
   10900    1.0017892   0.18426839    20.606056    22.292632   0.22466722 
   11000    1.0063174   0.18052039    20.589178    22.278797   0.19597721 
   11100   0.99376287   0.18171953    20.599132    22.271124   0.51481094 
   11200     1.005241   0.18369998    20.591904    22.283088   0.45293206 
   11300   0.99357851    0.1880765    20.603928       22.282   0.27225676 
   11400   0.99492322   0.19434283     20.59523    22.281584   0.24786922 
   11500   0.98772266   0.19785454    20.601072     22.28014    0.5018478 
   11600   0.98364957   0.20324929    20.592048    22.270402   0.29912196 
   11700    0.9848775   0.20035894    20.605577    22.282883  0.051973261 
   11800     0.990209   0.19586566    20.607282     22.28809   0.20788104 
   11900   0.99413292     0.193527    20.598975    22.283329   0.27762085 
   12000    1.0066208   0.19162261    20.585486    22.286662   0.51178722 
Loop time of 0.46893 on 4 procs (4 MPI x 1 OpenMP) for 2000 steps with 4000 atoms

Pair  time (%) = 0.137442 (29.3097)
Bond  time (%) = 0.0453846 (9.67834)
Neigh time (%) = 0.0278983 (5.94934)
Comm  time (%) = 0.0962952 (20.5351)
Outpt time (%) = 0.000930727 (0.198479)
Other time (%) = 0.160979 (34.3291)

Nlocal:    1000 ave 1024 max 978 min
Histogram: 1 0 0 0 2 0 0 0 0 1
Nghost:    1034 ave 1076 max 1008 min
Histogram: 1 0 1 1 0 0 0 0 0 1
Neighs:    3103.25 ave 3281 max 2957 min
Histogram: 1 1 0 0 0 0 1 0 0 1

Total # of neighbors = 12413
Ave neighs/atom = 3.10325
Ave special neighs/atom = 5.925
Neighbor list builds = 43
Dangerous builds = 0
shell          head -n 2 Temp.txt | tail -n 1 >> Tempfile.txt
shell          head -n 2 Bond.txt | tail -n 1 >> Bondfile.txt
next           myTempStr
next           myBondStr
if "${myBond} <= 0" then "jump imdinput.txt nobonds"
jump           imdinput.txt loop2here

# specifies the run length in timesteps
run            2000
WARNING: Use special bonds = 0,1,1 with bond style fene (../bond_fene.cpp:188)
Memory usage per processor = 5.58271 Mbytes
Step Temp E_pair E_mol TotEng Press 
   12000    1.0066208   0.19162261    20.585486    22.286662   0.51178722 
   12100   0.99712837   0.18913891    20.597323     22.28178   0.36413645 
   12200    1.0111833   0.18706165    20.579279    22.282736    0.4278978 
   12300    1.0031748   0.19143129    20.602335    22.298153   0.32136506 
   12400   0.99803757   0.19567188    20.604348    22.296702   0.31511423 
   12500    1.0097725   0.19800234    20.589491    22.301774   0.45998815 
   12600    1.0145708   0.19849949    20.594424    22.314399  0.046689107 
   12700    1.0095366   0.19515675    20.598941    22.308024   0.32204039 
   12800    1.0116806   0.19276979    20.600194    22.310105   0.24690038 
   12900      1.00649   0.19050491    20.605563    22.305425  0.088599345 
   13000    1.0116918   0.19011128    20.576674    22.283943   0.55115156 
   13100    1.0042618    0.1930922     20.58979    22.288898    0.4806969 
   13200    1.0191045   0.19617152    20.596021    22.320467   0.34005879 
   13300      1.00362   0.19978215    20.604126    22.308962   0.15505229 
   13400   0.99896803   0.19992524    20.592331    22.290334   0.53854308 
   13500    1.0089863   0.19710294    20.584948    22.295152   0.44440466 
   13600    1.0029885   0.19178104    20.606024    22.301912   0.40236764 
   13700    1.0032799   0.18650153    20.606174    22.297219   0.39121375 
   13800    1.0225462   0.18636895    20.590522    22.310327   0.30532829 
   13900    1.0191187   0.18789813    20.587681    22.303875   0.26474383 
   14000    1.0070005   0.19326016    20.588232    22.291616   0.35508363 
Loop time of 0.466774 on 4 procs (4 MPI x 1 OpenMP) for 2000 steps with 4000 atoms

Pair  time (%) = 0.138099 (29.5857)
Bond  time (%) = 0.0454512 (9.7373)
Neigh time (%) = 0.0278119 (5.95832)
Comm  time (%) = 0.0931133 (19.9483)
Outpt time (%) = 0.000924349 (0.198029)
Other time (%) = 0.161375 (34.5724)

Nlocal:    1000 ave 1033 max 959 min
Histogram: 1 0 0 0 0 1 1 0 0 1
Nghost:    1052 ave 1114 max 1000 min
Histogram: 1 0 0 1 1 0 0 0 0 1
Neighs:    3122.75 ave 3369 max 2735 min
Histogram: 1 0 0 0 0 0 0 2 0 1

Total # of neighbors = 12491
Ave neighs/atom = 3.12275
Ave special neighs/atom = 5.925
Neighbor list builds = 43
Dangerous builds = 0
shell          head -n 2 Temp.txt | tail -n 1 >> Tempfile.txt
shell          head -n 2 Bond.txt | tail -n 1 >> Bondfile.txt
next           myTempStr
next           myBondStr
if "${myBond} <= 0" then "jump imdinput.txt nobonds"
jump           imdinput.txt loop2here

# specifies the run length in timesteps
run            2000
WARNING: Use special bonds = 0,1,1 with bond style fene (../bond_fene.cpp:188)
Memory usage per processor = 5.58588 Mbytes
Step Temp E_pair E_mol TotEng Press 
   14000    1.0070005   0.19326016    20.588232    22.291616   0.35508363 
   14100   0.99114604   0.19769633    20.596624    22.280668   0.16547107 
   14200   0.99035702   0.19740904    20.599554    22.282127   0.31909792 
   14300    0.9989444   0.19811659    20.586083    22.282242   0.41932629 
   14400     1.002098   0.19562419      20.5864    22.284796   0.44473785 
   14500    0.9919119   0.19558729     20.58741    22.270494   0.41632684 
   14600   0.99541542   0.19738926    20.573432    22.263571   0.46518994 
   14700   0.99114646   0.19914161    20.565121    22.250611   0.11595954 
   14800   0.98321829   0.19967985    20.581771     22.25591   0.30901474 
   14900   0.99111517   0.20331142     20.58452    22.274133  0.066907601 
   15000   0.98627526   0.20425319    20.593921    22.277217   0.53729338 
   15100    1.0034101   0.20492875     20.57139    22.281057   0.43232237 
   15200   0.99259456   0.20565885    20.587429    22.281607   0.36864597 
   15300   0.98754413   0.20603058    20.595645    22.282622   0.09316371 
   15400    1.0135635   0.20533478    20.575768    22.301068   0.28429135 
   15500     1.015729   0.20440505    20.566407    22.294024   0.44340495 
   15600   0.99982044   0.20239441    20.586962    22.288712   0.20661458 
   15700    1.0004914   0.20111563     20.58786    22.289338   0.24027364 
   15800    1.0083999   0.20193252    20.577198    22.291352   0.35316345 
   15900   0.98110736   0.20304757    20.616149    22.290489   0.30589365 
   16000   0.98924562   0.20520111     20.60604    22.294739   0.21733004 
Loop time of 0.476581 on 4 procs (4 MPI x 1 OpenMP) for 2000 steps with 4000 atoms

Pair  time (%) = 0.140034 (29.383)
Bond  time (%) = 0.04545 (9.53668)
Neigh time (%) = 0.0295089 (6.19179)
Comm  time (%) = 0.098411 (20.6494)
Outpt time (%) = 0.00094837 (0.198995)
Other time (%) = 0.162229 (34.0402)

Nlocal:    1000 ave 1049 max 945 min
Histogram: 1 0 0 1 0 0 0 1 0 1
Nghost:    1081.5 ave 1145 max 1035 min
Histogram: 2 0 0 0 0 0 1 0 0 1
Neighs:    3171.5 ave 3414 max 2900 min
Histogram: 1 1 0 0 0 0 0 0 0 2

Total # of neighbors = 12686
Ave neighs/atom = 3.1715
Ave special neighs/atom = 5.925
Neighbor list builds = 44
Dangerous builds = 0
shell          head -n 2 Temp.txt | tail -n 1 >> Tempfile.txt
shell          head -n 2 Bond.txt | tail -n 1 >> Bondfile.txt
next           myTempStr
next           myBondStr
if "${myBond} <= 0" then "jump imdinput.txt nobonds"
jump           imdinput.txt loop2here

# specifies the run length in timesteps
run            2000
WARNING: Use special bonds = 0,1,1 with bond style fene (../bond_fene.cpp:188)
Memory usage per processor = 5.58857 Mbytes
Step Temp E_pair E_mol TotEng Press 
   16000   0.98924562   0.20520111     20.60604    22.294739   0.21733004 
   16100    1.0180036   0.20426974    20.583479    22.314372   0.78176517 
   16200     1.008699   0.20329917    20.611203    22.327172   0.26578784 
   16300    1.0036126   0.19840586    20.622822    22.326271  0.051869483 
   16400    1.0252503   0.19780599    20.597097    22.332394   0.44303589 
   16500    1.0124238   0.19971784     20.60735    22.325324   0.42402043 
   16600    1.0295413   0.19772158    20.581887    22.323534   0.51340232 
   16700    1.0245235   0.19574167    20.596534    22.328676   0.22720637 
   16800    1.0112789   0.19416642    20.591622    22.302327   0.27073802 
   16900    1.0195201   0.19503178    20.581263    22.305193   0.27150065 
   17000    1.0080545    0.1968646    20.610759    22.319328   0.28594524 
   17100    1.0193132   0.20142647    20.587508    22.317522   0.26614292 
   17200   0.99438188   0.20539976    20.613181    22.309781   0.30701024 
   17300    1.0010872   0.20293734    20.579853    22.284045   0.51419824 
   17400    1.0060984   0.20260064    20.578687    22.290058    0.3143469 
   17500    1.0044649   0.19771644    20.588571    22.292608   0.41577582 
   17600    1.0086561   0.19632971    20.582895    22.291831   0.29466658 
   17700    1.0017901   0.19476917     20.58684    22.283918   0.18331402 
   17800   0.97732651   0.19437863    20.605684    22.265686   0.24744032 
   17900     1.000309   0.19574921     20.58143    22.277267   0.45457719 
   18000   0.99404928   0.19644597    20.585168    22.272315    0.4741376 
Loop time of 0.465037 on 4 procs (4 MPI x 1 OpenMP) for 2000 steps with 4000 atoms

Pair  time (%) = 0.138619 (29.8082)
Bond  time (%) = 0.0453205 (9.74557)
Neigh time (%) = 0.0266241 (5.72517)
Comm  time (%) = 0.0922369 (19.8343)
Outpt time (%) = 0.000946283 (0.203486)
Other time (%) = 0.16129 (34.6832)

Nlocal:    1000 ave 1011 max 991 min
Histogram: 2 0 0 0 0 0 0 1 0 1
Nghost:    1084 ave 1125 max 1063 min
Histogram: 1 1 1 0 0 0 0 0 0 1
Neighs:    3119.5 ave 3204 max 3022 min
Histogram: 1 0 0 0 0 1 1 0 0 1

Total # of neighbors = 12478
Ave neighs/atom = 3.1195
Ave special neighs/atom = 5.925
Neighbor list builds = 42
Dangerous builds = 0
shell          head -n 2 Temp.txt | tail -n 1 >> Tempfile.txt
shell          head -n 2 Bond.txt | tail -n 1 >> Bondfile.txt
next           myTempStr
next           myBondStr
if "${myBond} <= 0" then "jump imdinput.txt nobonds"
jump           imdinput.txt loop2here

# specifies the run length in timesteps
run            2000
WARNING: Use special bonds = 0,1,1 with bond style fene (../bond_fene.cpp:188)
Memory usage per processor = 5.58051 Mbytes
Step Temp E_pair E_mol TotEng Press 
   18000   0.99404928   0.19644597    20.585168    22.272315    0.4741376 
   18100    0.9977971   0.19491145    20.585456    22.276689   0.29247783 
   18200     1.011966   0.19545282    20.587557    22.300579   0.20463594 
   18300    1.0042845   0.19558726     20.60716    22.308797    0.5016144 
   18400   0.99447404   0.19621863    20.597679    22.285236   0.30665296 
   18500    1.0026637   0.19608847    20.603886    22.303594   0.38627455 
   18600    1.0152824   0.19660035    20.600447     22.31959    0.3858201 
   18700   0.99629267    0.1953122    20.615626    22.305003   0.13553377 
   18800    1.0128168   0.19291948     20.59654    22.308305   0.41350528 
   18900    1.0090076   0.19226664    20.600986    22.306386   0.33146419 
   19000    1.0138722   0.19112618    20.589662    22.301216   0.32622618 
   19100    1.0067478   0.19528821    20.592401    22.297434   0.42344618 
   19200    1.0058905    0.1980145    20.597652    22.304125   0.36346757 
   19300   0.99503274   0.19868141    20.594877    22.285734  0.095988499 
   19400    1.0024363   0.19670508    20.574212    22.274195    0.4705301 
   19500   0.99056052   0.19339806    20.583765    22.262633   0.48683613 
   19600   0.99366618   0.18812115    20.592726    22.270974   0.30056799 
   19700     0.992671   0.18842649    20.585536    22.262596   0.42673556 
   19800   0.98226563   0.18965792    20.580683    22.243371   0.23663246 
   19900   0.98480056    0.1883564    20.579414    22.244602   0.23641729 
   20000   0.98825733   0.18647042    20.584263    22.252749   0.44348894 
Loop time of 0.462316 on 4 procs (4 MPI x 1 OpenMP) for 2000 steps with 4000 atoms

Pair  time (%) = 0.137817 (29.8102)
Bond  time (%) = 0.0454073 (9.8217)
Neigh time (%) = 0.0279384 (6.04313)
Comm  time (%) = 0.0906818 (19.6147)
Outpt time (%) = 0.000951529 (0.205818)
Other time (%) = 0.15952 (34.5045)

Nlocal:    1000 ave 1018 max 980 min
Histogram: 1 1 0 0 0 0 0 0 0 2
Nghost:    1105.5 ave 1153 max 1074 min
Histogram: 1 1 0 0 1 0 0 0 0 1
Neighs:    3046.75 ave 3172 max 2897 min
Histogram: 1 0 0 1 0 0 0 0 1 1

Total # of neighbors = 12187
Ave neighs/atom = 3.04675
Ave special neighs/atom = 5.925
Neighbor list builds = 43
Dangerous builds = 0
shell          head -n 2 Temp.txt | tail -n 1 >> Tempfile.txt
shell          head -n 2 Bond.txt | tail -n 1 >> Bondfile.txt
next           myTempStr
next           myBondStr
if "${myBond} <= 0" then "jump imdinput.txt nobonds"
jump           imdinput.txt loop2here

# specifies the run length in timesteps
run            2000
WARNING: Use special bonds = 0,1,1 with bond style fene (../bond_fene.cpp:188)
Memory usage per processor = 5.58173 Mbytes
Step Temp E_pair E_mol TotEng Press 
   20000   0.98825733   0.18647042    20.584263    22.252749   0.44348894 
   20100   0.98821055   0.18654273    20.574797    22.243285    0.3460879 
   20200    0.9866382   0.18678757    20.573527    22.239902    0.2550133 
   20300    1.0014577   0.18628451    20.568161    22.256257   0.34871305 
   20400    0.9894208   0.18706042    20.576265    22.247085   0.19697594 
   20500   0.98574947   0.18642917    20.576351    22.241035   0.31737459 
   20600   0.99977057   0.18569835    20.586506    22.271485   0.23660855 
   20700    1.0106742   0.18750661    20.570194    22.273333   0.58661589 
   20800   0.99598792   0.18944683    20.585754    22.268809   0.24929733 
   20900   0.98755012   0.18749577    20.582418    22.250868   0.53456669 
   21000    1.0014832   0.18848566    20.577124    22.267459   0.15585239 
   21100    1.0003318    0.1855202    20.587211    22.272854   0.13457394 
   21200    1.0011402   0.18778528     20.58403     22.27315   0.27044981 
   21300    1.0101792   0.19171371    20.585834    22.292438    0.1414629 
   21400    1.0140628   0.19388967    20.603111    22.317714   0.30583927 
   21500    1.0210481   0.19271664    20.589444     22.31335   0.63745228 
   21600    1.0146114   0.19084066    20.608939    22.321317   0.33987466 
   21700     1.021393   0.18449844    20.595964    22.312169   0.30651178 
   21800    1.0159488   0.18308359    20.595287    22.301913   0.24356021 
   21900    1.0162449   0.18450658    20.601626    22.310118   0.11920617 
   22000    1.0094702   0.18422827    20.593983    22.292038   0.44079764 
Loop time of 0.462345 on 4 procs (4 MPI x 1 OpenMP) for 2000 steps with 4000 atoms

Pair  time (%) = 0.135108 (29.2223)
Bond  time (%) = 0.0454981 (9.84074)
Neigh time (%) = 0.0266873 (5.77217)
Comm  time (%) = 0.0946846 (20.4792)
Outpt time (%) = 0.000947654 (0.204967)
Other time (%) = 0.159419 (34.4806)

Nlocal:    1000 ave 1036 max 970 min
Histogram: 1 0 0 1 0 1 0 0 0 1
Nghost:    1115.5 ave 1148 max 1075 min
Histogram: 1 0 0 1 0 0 0 0 0 2
Neighs:    3052.5 ave 3370 max 2822 min
Histogram: 1 0 1 1 0 0 0 0 0 1

Total # of neighbors = 12210
Ave neighs/atom = 3.0525
Ave special neighs/atom = 5.925
Neighbor list builds = 42
Dangerous builds = 0
shell          head -n 2 Temp.txt | tail -n 1 >> Tempfile.txt
shell          head -n 2 Bond.txt | tail -n 1 >> Bondfile.txt
next           myTempStr
next           myBondStr
if "${myBond} <= 0" then "jump imdinput.txt nobonds"
jump           imdinput.txt loop2here

# specifies the run length in timesteps
run            2000
WARNING: Use special bonds = 0,1,1 with bond style fene (../bond_fene.cpp:188)
Memory usage per processor = 5.58637 Mbytes
Step Temp E_pair E_mol TotEng Press 
   22000    1.0094702   0.18422827    20.593983    22.292038   0.44079764 
   22100    1.0148912   0.18576116    20.581297    22.289015   0.55797738 
   22200    1.0000689   0.18580053    20.619786    22.305315   0.23302516 
   22300    1.0010281   0.18869308    20.624569    22.314429   0.25774807 
   22400    1.0052328   0.19348581    20.616145    22.317103   0.33969747 
   22500    1.0083203   0.19714673    20.615484    22.324733   0.32769433 
   22600    1.0101347   0.19537317    20.609688    22.319885   0.41591206 
   22700    1.0081052   0.19190528     20.61739    22.321075  -0.10822792 
   22800    1.0085482   0.18864739    20.612004    22.313096   0.41353717 
   22900    1.0027266   0.18240257     20.62601    22.312126   0.25814257 
   23000    1.0232266   0.18090278    20.617241      22.3326   0.57218732 
   23100    1.0230703   0.18413037    20.614936    22.333288    0.1705858 
   23200    1.0063856   0.18683229    20.617131    22.313164   0.32626267 
   23300    1.0087072   0.18780447     20.61009    22.310577    0.5513446 
   23400    1.0153342   0.18429633    20.608071    22.314988   0.45592923 
   23500    1.0198965    0.1849389    20.608215    22.322616   0.25871071 
   23600    1.0120142   0.18696247    20.616373    22.320977  0.045704734 
   23700    1.0103742   0.18843189    20.605991    22.309606   0.43253831 
   23800    1.0049081   0.18857169    20.618541    22.314098    0.1973442 
   23900    1.0032608   0.18800084    20.610139    22.302655   0.42606563 
   24000   0.99669566    0.1914009    20.619123    22.305194   0.39561143 
Loop time of 0.46628 on 4 procs (4 MPI x 1 OpenMP) for 2000 steps with 4000 atoms

Pair  time (%) = 0.135672 (29.0966)
Bond  time (%) = 0.0452837 (9.71169)
Neigh time (%) = 0.0264566 (5.67397)
Comm  time (%) = 0.0972969 (20.8666)
Outpt time (%) = 0.000938535 (0.201281)
Other time (%) = 0.160632 (34.4498)

Nlocal:    1000 ave 1040 max 966 min
Histogram: 1 0 1 0 0 0 1 0 0 1
Nghost:    1071.75 ave 1095 max 1046 min
Histogram: 1 0 0 1 0 0 0 1 0 1
Neighs:    3042 ave 3260 max 2841 min
Histogram: 1 0 0 0 2 0 0 0 0 1

Total # of neighbors = 12168
Ave neighs/atom = 3.042
Ave special neighs/atom = 5.925
Neighbor list builds = 41
Dangerous builds = 0
shell          head -n 2 Temp.txt | tail -n 1 >> Tempfile.txt
shell          head -n 2 Bond.txt | tail -n 1 >> Bondfile.txt
next           myTempStr
next           myBondStr
if "${myBond} <= 0" then "jump imdinput.txt nobonds"
jump           imdinput.txt loop2here

# specifies the run length in timesteps
run            2000
WARNING: Use special bonds = 0,1,1 with bond style fene (../bond_fene.cpp:188)
Memory usage per processor = 5.5871 Mbytes
Step Temp E_pair E_mol TotEng Press 
   24000   0.99669566    0.1914009    20.619123    22.305194   0.39561143 
   24100    1.0112658   0.19103904    20.590937    22.298496   0.17316141 
   24200    1.0166734    0.1907953    20.592234    22.307659   0.39483236 
   24300    1.0032702   0.18986131    20.612888    22.307278   0.39191233 
   24400    1.0089603   0.18704923    20.588428    22.288539   0.25659366 
   24500    0.9957463   0.18430688    20.576459    22.254012   0.15337787 
   24600   0.99054611    0.1847563    20.587428    22.257632   0.47922668 
   24700   0.99265732   0.18889297    20.599894      22.2774   0.16893524 
   24800    1.0084534   0.18921366    20.596159    22.297675   0.43894554 
   24900   0.99866474   0.18969554    20.597253    22.284572   0.29627477 
   25000    1.0032022   0.19020901    20.576656    22.271292   0.45538361 
   25100   0.98389457    0.1939145     20.60726    22.276648  0.088627234 
   25200      0.99908   0.19978984    20.599062    22.297097   0.35565058 
   25300    1.0002354   0.20669773    20.593016    22.299691   0.35216557 
   25400    1.0006777   0.20529158    20.576635    22.282568   0.52613537 
   25500   0.98728209   0.20050639    20.574796    22.255856   0.13114602 
   25600    0.9955899   0.19491282    20.565711    22.253635   0.32569105 
   25700    0.9879474   0.18869251    20.575092    22.245335   0.26214024 
   25800    1.0031484   0.18458877    20.558198    22.247134   0.45494485 
   25900   0.99510181   0.18594089    20.578161    22.256381   0.18896504 
   26000    0.9945803   0.18927944     20.57244    22.253217   0.35901257 
Loop time of 0.468464 on 4 procs (4 MPI x 1 OpenMP) for 2000 steps with 4000 atoms

Pair  time (%) = 0.136813 (29.2046)
Bond  time (%) = 0.0457996 (9.77656)
Neigh time (%) = 0.0275712 (5.88545)
Comm  time (%) = 0.0960581 (20.5049)
Outpt time (%) = 0.00102586 (0.218983)
Other time (%) = 0.161196 (34.4095)

Nlocal:    1000 ave 1056 max 965 min
Histogram: 1 1 0 0 1 0 0 0 0 1
Nghost:    1059.25 ave 1074 max 1048 min
Histogram: 1 1 0 0 0 1 0 0 0 1
Neighs:    3061 ave 3479 max 2812 min
Histogram: 1 1 0 1 0 0 0 0 0 1

Total # of neighbors = 12244
Ave neighs/atom = 3.061
Ave special neighs/atom = 5.925
Neighbor list builds = 42
Dangerous builds = 0
shell          head -n 2 Temp.txt | tail -n 1 >> Tempfile.txt
shell          head -n 2 Bond.txt | tail -n 1 >> Bondfile.txt
next           myTempStr
next           myBondStr
if "${myBond} <= 0" then "jump imdinput.txt nobonds"
jump           imdinput.txt loop2here

# specifies the run length in timesteps
run            2000
WARNING: Use special bonds = 0,1,1 with bond style fene (../bond_fene.cpp:188)
Memory usage per processor = 5.59052 Mbytes
Step Temp E_pair E_mol TotEng Press 
   26000    0.9945803   0.18927944     20.57244    22.253217   0.35901257 
   26100    1.0047769   0.19165171    20.556987    22.255427   0.39205999 
   26200   0.98371644   0.19243398    20.576789    22.244429 -0.006868825 
   26300   0.99313434   0.18646715    20.580676    22.256472   0.46797056 
   26400   0.97846626   0.18165967    20.595418     22.24441   0.28099779 
   26500   0.99043698   0.18178047    20.576235    22.243299   0.41560738 
   26600   0.97313928   0.18473638    20.590488    22.234569   0.35313368 
   26700   0.99465352    0.1869384    20.582846    22.261392   0.10564479 
   26800   0.98400321   0.18921183    20.590141    22.254988   0.25570805 
   26900   0.99581267   0.19314505    20.575359     22.26185   0.14513631 
   27000   0.98393641   0.19434815    20.581644    22.251528   0.56888878 
   27100   0.99421021   0.19522087    20.584747     22.27091   0.44130618 
   27200    1.0038015   0.19625709    20.591019    22.292602   0.19809093 
   27300    1.0090201    0.1924723    20.577241    22.282865   0.42130408 
   27400    1.0116372   0.19275916    20.565541    22.275377   0.51253149 
   27500   0.99682192   0.19274516    20.583614    22.271218   0.16867799 
   27600    1.0099883   0.19341529    20.571336    22.279355   0.32228668 
   27700    1.0001283   0.19761417    20.586431    22.283862   0.45288448 
   27800   0.99534695   0.20298734    20.586599    22.282234   0.15005212 
   27900   0.99971837   0.20660967    20.577242    22.283055   0.30258906 
   28000   0.99488238   0.20678617    20.597165    22.295902   0.31354857 
Loop time of 0.462767 on 4 procs (4 MPI x 1 OpenMP) for 2000 steps with 4000 atoms

Pair  time (%) = 0.136954 (29.5947)
Bond  time (%) = 0.0453736 (9.80486)
Neigh time (%) = 0.0278963 (6.02817)
Comm  time (%) = 0.0932386 (20.1481)
Outpt time (%) = 0.000935972 (0.202256)
Other time (%) = 0.158368 (34.222)

Nlocal:    1000 ave 1036 max 963 min
Histogram: 1 0 0 1 0 0 1 0 0 1
Nghost:    1084.75 ave 1126 max 1031 min
Histogram: 1 0 0 0 1 0 0 0 1 1
Neighs:    3147 ave 3314 max 2895 min
Histogram: 1 0 0 0 1 0 0 0 0 2

Total # of neighbors = 12588
Ave neighs/atom = 3.147
Ave special neighs/atom = 5.925
Neighbor list builds = 42
Dangerous builds = 0
shell          head -n 2 Temp.txt | tail -n 1 >> Tempfile.txt
shell          head -n 2 Bond.txt | tail -n 1 >> Bondfile.txt
next           myTempStr
next           myBondStr
if "${myBond} <= 0" then "jump imdinput.txt nobonds"
jump           imdinput.txt loop2here

# specifies the run length in timesteps
run            2000
WARNING: Use special bonds = 0,1,1 with bond style fene (../bond_fene.cpp:188)
Memory usage per processor = 5.5854 Mbytes
Step Temp E_pair E_mol TotEng Press 
   28000   0.99488238   0.20678617    20.597165    22.295902   0.31354857 
   28100    1.0020554   0.20507953    20.592053     22.29984   0.36446074 
   28200     1.018055   0.20104203    20.582085    22.309828   0.10237572 
   28300    1.0088949   0.19792627    20.598204    22.309095   0.54852858 
   28400    1.0140388   0.19571899    20.592136    22.308533   0.43237817 
   28500    1.0120594   0.19729603    20.589283    22.304289   0.31355322 
   28600    1.0102035   0.19887746    20.598684    22.312488   0.38979873 
   28700    1.0038741   0.20287342    20.590149    22.298457   0.22017316 
   28800     1.002619   0.20260251    20.588615     22.29477   0.37832208 
   28900    1.0196198    0.2030568    20.571626    22.303731   0.40597375 
   29000   0.99933797   0.20196908    20.591744    22.292345   0.28833534 
   29100   0.98815321     0.198646    20.592033    22.272538   0.27147955 
   29200   0.98509902   0.19829512    20.598945    22.274519   0.42228531 
   29300    0.9857252   0.19994319    20.580361    22.258522   0.24938245 
   29400   0.98249451   0.19688336    20.589871    22.260128   0.56960078 
   29500   0.98630912   0.18982735     20.58312    22.252041    0.3602134 
   29600   0.99335821   0.18983731    20.588598      22.2681   0.24204307 
   29700    1.0023282   0.19083225    20.582833    22.276781   0.36360164 
   29800   0.99149913   0.19137797     20.59679    22.275045  0.082639554 
   29900   0.99866638   0.19213059    20.599598    22.289354   0.55022098 
   30000    1.0041537   0.19706085    20.593188    22.296103   0.21865045 
Loop time of 0.472431 on 4 procs (4 MPI x 1 OpenMP) for 2000 steps with 4000 atoms

Pair  time (%) = 0.139357 (29.4978)
Bond  time (%) = 0.0455066 (9.63243)
Neigh time (%) = 0.0283558 (6.0021)
Comm  time (%) = 0.0969602 (20.5237)
Outpt time (%) = 0.000938952 (0.198749)
Other time (%) = 0.161313 (34.1452)

Nlocal:    1000 ave 1065 max 952 min
Histogram: 1 0 1 0 1 0 0 0 0 1
Nghost:    1074.75 ave 1117 max 1044 min
Histogram: 1 1 0 0 0 1 0 0 0 1
Neighs:    3117 ave 3376 max 2890 min
Histogram: 1 0 1 0 0 1 0 0 0 1

Total # of neighbors = 12468
Ave neighs/atom = 3.117
Ave special neighs/atom = 5.925
Neighbor list builds = 42
Dangerous builds = 0
shell          head -n 2 Temp.txt | tail -n 1 >> Tempfile.txt
shell          head -n 2 Bond.txt | tail -n 1 >> Bondfile.txt
next           myTempStr
next           myBondStr
if "${myBond} <= 0" then "jump imdinput.txt nobonds"
jump           imdinput.txt loop2here

# specifies the run length in timesteps
run            2000
WARNING: Use special bonds = 0,1,1 with bond style fene (../bond_fene.cpp:188)
Memory usage per processor = 5.59223 Mbytes
Step Temp E_pair E_mol TotEng Press 
   30000    1.0041537   0.19706085    20.593188    22.296103   0.21865045 
   30100    1.0083854   0.19738321    20.599674    22.309257   0.53226279 
   30200   0.99960146   0.19880011    20.604703     22.30253   0.38169845 
   30300    1.0061498   0.19969613    20.601196    22.309739   0.23358913 
   30400    1.0064939   0.19956056    20.587059    22.295983   0.44204448 
   30500   0.99594697   0.19537138    20.594875    22.283793   0.38655416 
   30600   0.99348269   0.18983711    20.577908    22.257597  0.039118778 
   30700   0.99137399   0.18731446    20.579003    22.253006    0.1753914 
   30800   0.99969797   0.18376126     20.56664    22.249573   0.58355488 
   30900   0.98828126   0.18871338    20.582635    22.253399   0.17463091 
   31000   0.97813118   0.19307294    20.585983    22.245885   0.62403364 
   31100   0.98104212   0.19402143    20.589454    22.254671   0.19239237 
   31200   0.98041722   0.18900387    20.587922    22.247184   0.23005646 
   31300   0.98814993   0.18744762     20.57882    22.248122   0.37905061 
   31400   0.97856671    0.1913093    20.583387     22.24218     0.299839 
   31500   0.99485869   0.19622626     20.56535    22.253491   0.36711352 
   31600   0.97912247   0.19913101    20.579988    22.247436   0.55749248 
   31700    0.9790244     0.197472    20.590481    22.256122 0.0079032241 
   31800   0.98840262   0.18916843    20.578928     22.25033   0.51689842 
   31900   0.99216327   0.18642925    20.582206    22.256508   0.35492319 
   32000   0.99127645   0.18518665    20.581661    22.253391   0.25203894 
Loop time of 0.464292 on 4 procs (4 MPI x 1 OpenMP) for 2000 steps with 4000 atoms

Pair  time (%) = 0.13766 (29.6495)
Bond  time (%) = 0.0457972 (9.86388)
Neigh time (%) = 0.0272177 (5.86219)
Comm  time (%) = 0.0917387 (19.7588)
Outpt time (%) = 0.000933945 (0.201155)
Other time (%) = 0.160944 (34.6644)

Nlocal:    1000 ave 1034 max 983 min
Histogram: 2 0 1 0 0 0 0 0 0 1
Nghost:    1072 ave 1097 max 1050 min
Histogram: 1 1 0 0 0 0 0 1 0 1
Neighs:    3083.5 ave 3360 max 2945 min
Histogram: 2 0 0 1 0 0 0 0 0 1

Total # of neighbors = 12334
Ave neighs/atom = 3.0835
Ave special neighs/atom = 5.925
Neighbor list builds = 42
Dangerous builds = 0
shell          head -n 2 Temp.txt | tail -n 1 >> Tempfile.txt
shell          head -n 2 Bond.txt | tail -n 1 >> Bondfile.txt
next           myTempStr
next           myBondStr
if "${myBond} <= 0" then "jump imdinput.txt nobonds"
jump           imdinput.txt loop2here

# specifies the run length in timesteps
run            2000
WARNING: Use special bonds = 0,1,1 with bond style fene (../bond_fene.cpp:188)
Memory usage per processor = 5.5854 Mbytes
Step Temp E_pair E_mol TotEng Press 
   32000   0.99127645   0.18518665    20.581661    22.253391   0.25203894 
   32100   0.99361355   0.18741957    20.587074    22.264541   0.36590031 
   32200   0.99516495   0.18790283    20.587147    22.267424   0.21434085 
   32300     1.000133   0.18583313    20.604837    22.290495   0.39751988 
   32400    1.0149544   0.18437109    20.581527    22.287949   0.51839291 
   32500    1.0158919   0.18738989      20.5809    22.291747   0.21821075 
   32600   0.99705549   0.19084572    20.581132    22.267187    0.2611169 
   32700     1.003159   0.19001885    20.589427    22.283808   0.24331777 
   32800   0.99605862   0.18869948    20.592074    22.274488   0.32357281 
   32900    1.0085458   0.18546994    20.588314    22.286224   0.44260059 
   33000    1.0001804   0.18656875    20.602977    22.289442   0.18995268 
   33100   0.98931336     0.189206    20.613479    22.286284   0.23639126 
   33200    0.9903012   0.19130521    20.593504    22.269889     0.467495 
   33300    0.9924702   0.19386083    20.591828    22.274022   0.48535036 
   33400   0.98831652   0.19792119    20.599341    22.279366   0.31259391 
   33500   0.98708643   0.19664586    20.590708    22.267613    0.2846151 
   33600   0.98691557   0.19748927    20.588094    22.265587   0.36325056 
   33700   0.98139828   0.20252397    20.595689    22.269942   0.25650554 
   33800    1.0026665   0.20395719     20.56874    22.276321   0.28775113 
   33900   0.99861443   0.20041299    20.565229     22.26319   0.34779632 
   34000   0.97757946   0.20053979    20.608037     22.27458   0.15059239 
Loop time of 0.468731 on 4 procs (4 MPI x 1 OpenMP) for 2000 steps with 4000 atoms

Pair  time (%) = 0.137813 (29.4013)
Bond  time (%) = 0.0456423 (9.73742)
Neigh time (%) = 0.027164 (5.79522)
Comm  time (%) = 0.0956405 (20.4041)
Outpt time (%) = 0.000972331 (0.207439)
Other time (%) = 0.161499 (34.4545)

Nlocal:    1000 ave 1046 max 974 min
Histogram: 1 1 1 0 0 0 0 0 0 1
Nghost:    1037.75 ave 1083 max 1010 min
Histogram: 2 0 0 0 1 0 0 0 0 1
Neighs:    3110 ave 3451 max 2903 min
Histogram: 1 1 0 1 0 0 0 0 0 1

Total # of neighbors = 12440
Ave neighs/atom = 3.11
Ave special neighs/atom = 5.925
Neighbor list builds = 43
Dangerous builds = 0
shell          head -n 2 Temp.txt | tail -n 1 >> Tempfile.txt
shell          head -n 2 Bond.txt | tail -n 1 >> Bondfile.txt
next           myTempStr
next           myBondStr
if "${myBond} <= 0" then "jump imdinput.txt nobonds"
jump           imdinput.txt loop2here

# specifies the run length in timesteps
run            2000
WARNING: Use special bonds = 0,1,1 with bond style fene (../bond_fene.cpp:188)
Memory usage per processor = 5.58833 Mbytes
Step Temp E_pair E_mol TotEng Press 
   34000   0.97757946   0.20053979    20.608037     22.27458   0.15059239 
   34100    1.0094412   0.19763244    20.581751    22.293167   0.43622611 
   34200    1.0100645     0.200146    20.587946     22.30281    0.2513523 
   34300    1.0241101   0.20057347    20.590871    22.327225    0.6036743 
   34400    1.0113451   0.20236224    20.597829    22.316829   0.19445001 
   34500    1.0222882   0.20585442    20.581458    22.320361   0.23973119 
   34600    1.0063194    0.2027538    20.591065    22.302921   0.22589559 
   34700    1.0225737   0.20158235    20.586376    22.321436   0.40659507 
   34800    1.0105472   0.20101371    20.595625     22.31208   0.18479721 
   34900    1.0103662   0.19869124    20.581847    22.295709   0.58257714 
   35000    1.0059938   0.19643782    20.599053    22.304104   0.12386456 
   35100    1.0065597   0.19576105    20.587649    22.292872   0.41750109 
   35200   0.99152631   0.19724416    20.588117    22.272278   0.36366564 
   35300    1.0043118   0.20305896    20.573614    22.282764    0.1510047 
   35400    1.0003316   0.20390763    20.585371    22.289401   0.49167318 
   35500   0.99859088    0.2025793    20.593701    22.293792   0.27146275 
   35600     1.003132   0.20225344    20.599999    22.306575   0.19233446 
   35700    1.0232778   0.20347516    20.592006    22.330014   0.18858515 
   35800    1.0377149   0.19961816    20.580032    22.335833   0.51508749 
   35900    1.0149945   0.20196515    20.600262    22.324338   0.30800578 
   36000    1.0316122    0.2003096    20.583094    22.330435   0.21624592 
Loop time of 0.469225 on 4 procs (4 MPI x 1 OpenMP) for 2000 steps with 4000 atoms

Pair  time (%) = 0.140388 (29.9192)
Bond  time (%) = 0.0453938 (9.67422)
Neigh time (%) = 0.0274225 (5.84422)
Comm  time (%) = 0.0940027 (20.0336)
Outpt time (%) = 0.00092113 (0.196309)
Other time (%) = 0.161096 (34.3324)

Nlocal:    1000 ave 1041 max 977 min
Histogram: 1 1 1 0 0 0 0 0 0 1
Nghost:    1063 ave 1122 max 1011 min
Histogram: 1 1 0 0 0 0 0 1 0 1
Neighs:    3121 ave 3454 max 2955 min
Histogram: 1 1 1 0 0 0 0 0 0 1

Total # of neighbors = 12484
Ave neighs/atom = 3.121
Ave special neighs/atom = 5.925
Neighbor list builds = 42
Dangerous builds = 0
shell          head -n 2 Temp.txt | tail -n 1 >> Tempfile.txt
shell          head -n 2 Bond.txt | tail -n 1 >> Bondfile.txt
next           myTempStr
next           myBondStr
if "${myBond} <= 0" then "jump imdinput.txt nobonds"
jump           imdinput.txt loop2here

# specifies the run length in timesteps
run            2000
WARNING: Use special bonds = 0,1,1 with bond style fene (../bond_fene.cpp:188)
Memory usage per processor = 5.58637 Mbytes
Step Temp E_pair E_mol TotEng Press 
   36000    1.0316122    0.2003096    20.583094    22.330435   0.21624592 
   36100    1.0242077   0.19993681    20.583684    22.319549   0.50305981 
   36200    1.0233159   0.19968306    20.583045    22.317318   0.19172324 
   36300    1.0137693    0.1971997    20.604662    22.322136   0.45774803 
   36400    1.0136409   0.19657667    20.607657    22.324314   0.32014221 
   36500    1.0379184   0.19470519    20.602425    22.353619   0.28031373 
   36600    1.0288782   0.19326491    20.593189    22.329385   0.17187579 
   36700    1.0250009   0.18749344    20.598002    22.322612    0.2533488 
   36800    1.0196039   0.18802996    20.602293    22.319346   0.48218886 
   36900    1.0281684   0.19000804    20.599074    22.330949   0.37542744 
   37000    1.0283633   0.19030521    20.596571    22.329036   0.35637065 
   37100    1.0234437    0.1902477    20.598082    22.323111   0.22589559 
   37200   0.99705663   0.19040886    20.607794    22.293414    0.4425296 
   37300    1.0099007   0.19440568    20.587041    22.295919   0.34326708 
   37400    1.0119824    0.1954913    20.593686    22.306771   0.29019258 
   37500    1.0176403   0.19999969    20.592545    22.318624   0.46981595 
   37600     1.023646   0.20083367    20.608226    22.344145   0.27431206 
   37700    1.0275807   0.19817994    20.609719    22.348884   0.32227024 
   37800    1.0337987   0.19545835    20.603196    22.348965   0.45909803 
   37900    1.0313257   0.19277651    20.604436    22.343814   0.19342423 
   38000    1.0156243   0.19278446    20.613566    22.329406   0.43646661 
Loop time of 0.465448 on 4 procs (4 MPI x 1 OpenMP) for 2000 steps with 4000 atoms

Pair  time (%) = 0.137934 (29.6347)
Bond  time (%) = 0.0455354 (9.78314)
Neigh time (%) = 0.0262398 (5.63753)
Comm  time (%) = 0.094682 (20.3421)
Outpt time (%) = 0.000965714 (0.207481)
Other time (%) = 0.160091 (34.395)

Nlocal:    1000 ave 1042 max 961 min
Histogram: 1 0 0 1 0 1 0 0 0 1
Nghost:    1060.25 ave 1100 max 1027 min
Histogram: 1 0 1 0 0 1 0 0 0 1
Neighs:    3086.75 ave 3402 max 2812 min
Histogram: 1 0 0 0 2 0 0 0 0 1

Total # of neighbors = 12347
Ave neighs/atom = 3.08675
Ave special neighs/atom = 5.925
Neighbor list builds = 42
Dangerous builds = 0
shell          head -n 2 Temp.txt | tail -n 1 >> Tempfile.txt
shell          head -n 2 Bond.txt | tail -n 1 >> Bondfile.txt
next           myTempStr
next           myBondStr
if "${myBond} <= 0" then "jump imdinput.txt nobonds"
jump           imdinput.txt loop2here

# specifies the run length in timesteps
run            2000
WARNING: Use special bonds = 0,1,1 with bond style fene (../bond_fene.cpp:188)
Memory usage per processor = 5.58735 Mbytes
Step Temp E_pair E_mol TotEng Press 
   38000    1.0156243   0.19278446    20.613566    22.329406   0.43646661 
   38100    1.0083664   0.19461135    20.622936    22.329718   0.42911015 
   38200    1.0333298   0.19265045    20.603102    22.345359   0.25755317 
   38300    1.0406317   0.19188304    20.587904    22.340344   0.12310772 
   38400    1.0431259   0.19273139    20.604392    22.361421   0.37249378 
   38500    1.0528256   0.19677738    20.598597    22.374218   0.54512631 
   38600    1.0338858   0.19626611    20.612676    22.359384   0.30168035 
   38700    1.0371413   0.19656455    20.612659    22.364547   0.27169619 
   38800    1.0374441    0.1955244    20.607034    22.358336    0.3709073 
   38900    1.0464536   0.19662063    20.604808    22.370717   0.26243373 
   39000    1.0410273   0.19373417    20.618806    22.373691   0.39987891 
   39100    1.0330212   0.19446866    20.622145    22.365758    0.2198965 
   39200    1.0296918   0.19885807    20.605534    22.348544   0.45586664 
   39300    1.0106778   0.20581404    20.610473    22.331925   0.34727798 
   39400    1.0141402   0.20482215     20.61505    22.340703   0.45243073 
   39500    1.0277476   0.19997693    20.608137     22.34935   0.31085696 
   39600      1.02612   0.19575546    20.615465    22.350015   0.22088584 
   39700    1.0154355   0.19614965    20.624458     22.34338   0.21546337 
   39800    1.0218525   0.19353805    20.596626     22.32256   0.49519046 
   39900    1.0037054   0.19616537    20.612935    22.314282   0.26748908 
   40000    1.0173256   0.19346026     20.58807    22.307137   0.56292438 
Loop time of 0.461941 on 4 procs (4 MPI x 1 OpenMP) for 2000 steps with 4000 atoms

Pair  time (%) = 0.138649 (30.0145)
Bond  time (%) = 0.0455238 (9.8549)
Neigh time (%) = 0.026408 (5.71675)
Comm  time (%) = 0.0916196 (19.8336)
Outpt time (%) = 0.00102806 (0.222553)
Other time (%) = 0.158712 (34.3577)

Nlocal:    1000 ave 1046 max 948 min
Histogram: 1 0 0 1 0 0 0 1 0 1
Nghost:    1074.25 ave 1102 max 1028 min
Histogram: 1 0 0 0 0 0 0 2 0 1
Neighs:    3112.75 ave 3352 max 2849 min
Histogram: 1 0 0 0 1 0 1 0 0 1

Total # of neighbors = 12451
Ave neighs/atom = 3.11275
Ave special neighs/atom = 5.925
Neighbor list builds = 42
Dangerous builds = 0
shell          head -n 2 Temp.txt | tail -n 1 >> Tempfile.txt
shell          head -n 2 Bond.txt | tail -n 1 >> Bondfile.txt
next           myTempStr
next           myBondStr
if "${myBond} <= 0" then "jump imdinput.txt nobonds"
jump           imdinput.txt loop2here

# specifies the run length in timesteps
run            2000
WARNING: Use special bonds = 0,1,1 with bond style fene (../bond_fene.cpp:188)
Memory usage per processor = 5.58857 Mbytes
Step Temp E_pair E_mol TotEng Press 
   40000    1.0173256   0.19346026     20.58807    22.307137   0.56292438 
   40100   0.99969639   0.19382229    20.601239    22.294231   0.32023411 
   40200   0.98854969   0.19101543    20.613364    22.286834   0.24122335 
   40300   0.99554017   0.19064033    20.601196    22.284774    0.3738896 
   40400    1.0076453   0.18823314    20.602034    22.301358   0.36309241 
   40500    1.0048379   0.18752808    20.607161    22.301569   0.29184996 
   40600    1.0137267   0.18744935    20.606388    22.314047   0.39454935 
   40700     1.011034   0.18953747    20.607463    22.313173   0.49752661 
   40800    1.0298513   0.19173241    20.580857    22.316981    0.1941917 
   40900    1.0133465   0.18857729    20.604288    22.312505   0.32058913 
   41000    1.0255101   0.18908913    20.594729    22.321698   0.22988004 
   41100    1.0150004   0.18691251    20.591945    22.300978   0.37506988 
   41200    1.0123883   0.18559182    20.591102    22.294896   0.51229017 
   41300    1.0149579   0.18690518    20.586662    22.295624   0.37589729 
   41400   0.99303357   0.18908382      20.5896    22.267862   0.24122702 
   41500   0.99802015   0.19053168    20.583056    22.270244    0.3613818 
   41600   0.99234909   0.18917419    20.591946    22.269271   0.45999452 
   41700    1.0015822   0.18777048    20.592208    22.281976   0.21751002 
   41800    1.0074082   0.18855183    20.600761    22.300047  0.017904684 
   41900    1.0025294   0.19075315    20.609503    22.303674   0.62057766 
   42000    1.0112769   0.19537552    20.592424    22.304335   0.59711495 
Loop time of 0.455618 on 4 procs (4 MPI x 1 OpenMP) for 2000 steps with 4000 atoms

Pair  time (%) = 0.136855 (30.0373)
Bond  time (%) = 0.0454497 (9.97539)
Neigh time (%) = 0.0255042 (5.59772)
Comm  time (%) = 0.0883822 (19.3983)
Outpt time (%) = 0.000918269 (0.201544)
Other time (%) = 0.158509 (34.7898)

Nlocal:    1000 ave 1029 max 980 min
Histogram: 1 0 0 2 0 0 0 0 0 1
Nghost:    1083.5 ave 1116 max 1052 min
Histogram: 1 0 1 0 0 0 1 0 0 1
Neighs:    3086 ave 3224 max 2923 min
Histogram: 1 0 0 0 1 0 0 1 0 1

Total # of neighbors = 12344
Ave neighs/atom = 3.086
Ave special neighs/atom = 5.925
Neighbor list builds = 41
Dangerous builds = 0
shell          head -n 2 Temp.txt | tail -n 1 >> Tempfile.txt
shell          head -n 2 Bond.txt | tail -n 1 >> Bondfile.txt
next           myTempStr
next           myBondStr
if "${myBond} <= 0" then "jump imdinput.txt nobonds"
jump           imdinput.txt loop2here

# specifies the run length in timesteps
run            2000
WARNING: Use special bonds = 0,1,1 with bond style fene (../bond_fene.cpp:188)
Memory usage per processor = 5.58344 Mbytes
Step Temp E_pair E_mol TotEng Press 
   42000    1.0112769   0.19537552    20.592424    22.304335   0.59711495 
   42100    1.0149883   0.20156909    20.599303    22.322974   0.45381007 
   42200    1.0017888   0.20316824    20.603588    22.309064    0.1262003 
   42300    1.0000581   0.19975395      20.6001    22.299566   0.32240246 
   42400   0.98934472     0.201034     20.60909     22.29377   0.26658372 
   42500   0.98669716   0.20578995    20.604877    22.290343   0.39488656 
   42600   0.98874886      0.20454    20.587033    22.274325   0.43769403 
   42700    1.0015021   0.20253379    20.570518     22.27493   0.51532828 
   42800   0.99474131   0.20285092    20.595194    22.289784   0.16013259 
   42900   0.99609779   0.20140146    20.603772    22.298946   0.24178497 
   43000    1.0034164   0.20081816    20.604176    22.309743    0.2720543 
   43100   0.99994618   0.20515417    20.615147    22.319846   0.57784787 
   43200    1.0060751   0.20867478    20.602998    22.320408   0.48415757 
   43300    1.0095534   0.20817834    20.591458    22.313588   0.50015912 
   43400    1.0075862   0.20902668    20.595545    22.315574  0.020563966 
   43500    1.0040609   0.20647913    20.593085    22.305279   0.25028827 
   43600    1.0051018   0.20709766    20.596006    22.310379   0.61978624 
   43700     1.009721   0.20899868    20.585866    22.309067   0.32754348 
   43800      1.00505    0.2063565    20.599997    22.313551   0.26805813 
   43900   0.99750732   0.20295219    20.605167    22.304006    0.2070249 
   44000    1.0092347     0.201367    20.593826    22.308667   0.50930504 
Loop time of 0.465958 on 4 procs (4 MPI x 1 OpenMP) for 2000 steps with 4000 atoms

Pair  time (%) = 0.141428 (30.3521)
Bond  time (%) = 0.045301 (9.72213)
Neigh time (%) = 0.0269713 (5.78837)
Comm  time (%) = 0.0911554 (19.563)
Outpt time (%) = 0.000935733 (0.200819)
Other time (%) = 0.160166 (34.3735)

Nlocal:    1000 ave 1028 max 984 min
Histogram: 1 0 2 0 0 0 0 0 0 1
Nghost:    1057.25 ave 1072 max 1022 min
Histogram: 1 0 0 0 0 0 0 0 1 2
Neighs:    3087.75 ave 3325 max 2920 min
Histogram: 1 1 0 0 1 0 0 0 0 1

Total # of neighbors = 12351
Ave neighs/atom = 3.08775
Ave special neighs/atom = 5.925
Neighbor list builds = 42
Dangerous builds = 0
shell          head -n 2 Temp.txt | tail -n 1 >> Tempfile.txt
shell          head -n 2 Bond.txt | tail -n 1 >> Bondfile.txt
next           myTempStr
next           myBondStr
if "${myBond} <= 0" then "jump imdinput.txt nobonds"
jump           imdinput.txt loop2here

# specifies the run length in timesteps
run            2000
WARNING: Use special bonds = 0,1,1 with bond style fene (../bond_fene.cpp:188)
Memory usage per processor = 5.58271 Mbytes
Step Temp E_pair E_mol TotEng Press 
   44000    1.0092347     0.201367    20.593826    22.308667   0.50930504 
   44100    1.0043081   0.19932606    20.605021    22.310432   0.16752043 
   44200    1.0214979    0.1962576     20.58372    22.311842   0.61233535 
   44300      1.01648   0.19296645    20.591511    22.308817   0.22292044 
   44400    1.0149683   0.19195557    20.601002    22.315029   0.25838445 
   44500    1.0295645   0.19154415    20.592082    22.327587   0.50513511 
   44600    1.0102614   0.19332554    20.616682    22.325021   0.34183408 
   44700    1.0081019   0.19960369    20.617752     22.32913   0.30581233 
   44800    1.0166014   0.19993085    20.598543    22.322995   0.37446046 
   44900    1.0179944   0.19845678     20.59439    22.319457   0.27153427 
   45000    1.0065662   0.19470244    20.606707    22.310882   0.38488247 
   45100    1.0017115   0.19543073    20.608162    22.305784   0.40578209 
   45200    1.0128053   0.19751539    20.599141    22.315485  0.079632607 
   45300    1.0186253   0.19491567    20.600616    22.323087    0.3693678 
   45400    1.0141754   0.19021605    20.609146    22.320245   0.30834397 
   45500    1.0333389    0.1854205      20.5916    22.326642   0.26683408 
   45600    1.0189679   0.18272633    20.620075    22.330871   0.53162045 
   45700    1.0225223    0.1806396    20.614495    22.328535   0.17609631 
   45800    1.0304118   0.18026271    20.591383    22.316877   0.72583802 
   45900    1.0350994   0.18232728    20.594772    22.329361   0.12161175 
   46000    1.0189109   0.18681917    20.606519    22.321323   0.25131874 
Loop time of 0.454475 on 4 procs (4 MPI x 1 OpenMP) for 2000 steps with 4000 atoms

Pair  time (%) = 0.137145 (30.1766)
Bond  time (%) = 0.0452545 (9.95752)
Neigh time (%) = 0.0263062 (5.78825)
Comm  time (%) = 0.087038 (19.1513)
Outpt time (%) = 0.000923514 (0.203204)
Other time (%) = 0.157808 (34.7232)

Nlocal:    1000 ave 1024 max 988 min
Histogram: 2 0 0 1 0 0 0 0 0 1
Nghost:    1058.25 ave 1071 max 1041 min
Histogram: 1 0 0 0 1 0 0 0 0 2
Neighs:    3091 ave 3206 max 2939 min
Histogram: 1 0 0 0 0 1 0 1 0 1

Total # of neighbors = 12364
Ave neighs/atom = 3.091
Ave special neighs/atom = 5.925
Neighbor list builds = 42
Dangerous builds = 0
shell          head -n 2 Temp.txt | tail -n 1 >> Tempfile.txt
shell          head -n 2 Bond.txt | tail -n 1 >> Bondfile.txt
next           myTempStr
next           myBondStr
if "${myBond} <= 0" then "jump imdinput.txt nobonds"
jump           imdinput.txt loop2here

# specifies the run length in timesteps
run            2000
WARNING: Use special bonds = 0,1,1 with bond style fene (../bond_fene.cpp:188)
Memory usage per processor = 5.58344 Mbytes
Step Temp E_pair E_mol TotEng Press 
   46000    1.0189109   0.18681917    20.606519    22.321323   0.25131874 
   46100    1.0015487   0.19200247    20.619719    22.313669   0.22500225 
   46200   0.99333805   0.19701878    20.599226    22.285879   0.58641919 
   46300   0.99346211   0.19906829    20.605735    22.294624   0.37861642 
   46400   0.99270866   0.19921438    20.592412    22.280317   0.46974127 
   46500    0.9603476   0.20233038      20.6245    22.266991   0.28876094 
   46600   0.97673183   0.20435332    20.590593    22.259678   0.23670819 
   46700   0.97805995   0.20630896    20.590995    22.264028   0.62221071 
   46800   0.97873203   0.20848068    20.590733    22.266945   0.23912531 
   46900   0.97844677   0.20530867    20.590826    22.263438   0.40027364 
   47000   0.99858696   0.20155662    20.580528    22.279591   0.28931282 
   47100     0.991335   0.19944111     20.58726    22.273332   0.25673431 
   47200   0.99735166    0.1961639    20.585848    22.277665   0.37802172 
   47300    1.0017449   0.19141317    20.588211    22.281866   0.12469238 
   47400   0.99316331   0.19029297    20.600995     22.28066   0.40779659 
   47500    1.0103583    0.1882739    20.590658    22.294091   0.51347554 
   47600    1.0171466    0.1862022    20.585519    22.297059   0.62563625 
   47700   0.99845463   0.18605278    20.600058    22.283418   0.20606155 
   47800   0.98748405   0.18540324    20.608976    22.275235   0.34972481 
   47900   0.99864627   0.18974996    20.596524    22.283869   0.36519283 
   48000   0.99468498   0.19010631    20.595831    22.277592   0.30492777 
Loop time of 0.456095 on 4 procs (4 MPI x 1 OpenMP) for 2000 steps with 4000 atoms

Pair  time (%) = 0.138429 (30.3509)
Bond  time (%) = 0.0453499 (9.94309)
Neigh time (%) = 0.0255051 (5.59207)
Comm  time (%) = 0.0887862 (19.4666)
Outpt time (%) = 0.000920236 (0.201764)
Other time (%) = 0.157104 (34.4455)

Nlocal:    1000 ave 1015 max 980 min
Histogram: 1 0 0 0 1 0 0 0 1 1
Nghost:    1056 ave 1085 max 1029 min
Histogram: 1 1 0 0 0 0 0 1 0 1
Neighs:    3086.75 ave 3246 max 2879 min
Histogram: 1 0 0 0 0 0 2 0 0 1

Total # of neighbors = 12347
Ave neighs/atom = 3.08675
Ave special neighs/atom = 5.925
Neighbor list builds = 40
Dangerous builds = 0
shell          head -n 2 Temp.txt | tail -n 1 >> Tempfile.txt
shell          head -n 2 Bond.txt | tail -n 1 >> Bondfile.txt
next           myTempStr
next           myBondStr
if "${myBond} <= 0" then "jump imdinput.txt nobonds"
jump           imdinput.txt loop2here

# specifies the run length in timesteps
run            2000
WARNING: Use special bonds = 0,1,1 with bond style fene (../bond_fene.cpp:188)
Memory usage per processor = 5.58051 Mbytes
Step Temp E_pair E_mol TotEng Press 
   48000   0.99468498   0.19010631    20.595831    22.277592   0.30492777 
   48100     0.988221     0.187446    20.607258    22.276664   0.19949707 
   48200    1.0109759   0.18829517    20.587427    22.291807   0.35119875 
   48300    1.0052069   0.18779712    20.590084    22.285314   0.28932776 
   48400   0.98564713   0.18770113    20.604553    22.270355   0.23911066 
   48500   0.98523059   0.19051227    20.596658    22.264647   0.53959757 
   48600   0.98642376   0.19644714    20.607821    22.283534   0.30652369 
   48700   0.99926465   0.20094363    20.597395     22.29686   0.34635749 
   48800    1.0058991   0.20384995    20.578798    22.291119   0.30919304 
   48900   0.99177988   0.19784732    20.592489    22.277634   0.43524208 
   49000   0.99950401   0.19196019    20.587635    22.278477   0.26513553 
   49100   0.98928206   0.18841749    20.598001    22.269971   0.33888855 
   49200   0.98664042   0.18718778    20.591028    22.257807   0.48871308 
   49300    1.0092152   0.18757878    20.578879    22.279902   0.24360117 
   49400    1.0010675    0.1891822     20.60231    22.292718   0.21053154 
   49500    0.9994711    0.1911837    20.598571    22.288587   0.39472826 
   49600   0.99286903   0.19529535    20.596715    22.280942   0.31528504 
   49700   0.99282294    0.1988842    20.594591    22.282338   0.14174975 
   49800   0.99826579   0.19968669    20.581745    22.278456   0.40431392 
   49900    1.0034917   0.19858342     20.58724    22.290684   0.57884049 
   50000    1.0172967   0.19899082    20.591554    22.316109    0.5894961 
Loop time of 0.456172 on 4 procs (4 MPI x 1 OpenMP) for 2000 steps with 4000 atoms

Pair  time (%) = 0.137607 (30.1657)
Bond  time (%) = 0.0454547 (9.96439)
Neigh time (%) = 0.0260306 (5.70632)
Comm  time (%) = 0.0874539 (19.1713)
Outpt time (%) = 0.000946701 (0.207532)
Other time (%) = 0.158679 (34.7848)

Nlocal:    1000 ave 1032 max 968 min
Histogram: 1 1 0 0 0 0 0 0 1 1
Nghost:    1081.75 ave 1097 max 1056 min
Histogram: 1 0 0 0 0 0 1 0 1 1
Neighs:    3108 ave 3333 max 2857 min
Histogram: 1 0 0 1 0 0 0 1 0 1

Total # of neighbors = 12432
Ave neighs/atom = 3.108
Ave special neighs/atom = 5.925
Neighbor list builds = 41
Dangerous builds = 0
shell          head -n 2 Temp.txt | tail -n 1 >> Tempfile.txt
shell          head -n 2 Bond.txt | tail -n 1 >> Bondfile.txt
next           myTempStr
next           myBondStr
if "${myBond} <= 0" then "jump imdinput.txt nobonds"
jump           imdinput.txt loop2here

# specifies the run length in timesteps
run            2000
WARNING: Use special bonds = 0,1,1 with bond style fene (../bond_fene.cpp:188)
Memory usage per processor = 5.58564 Mbytes
Step Temp E_pair E_mol TotEng Press 
   50000    1.0172967   0.19899082    20.591554    22.316109    0.5894961 
   50100     1.007344   0.20127218    20.589182    22.301093  0.046451064 
   50200    1.0007865    0.2006278    20.597998     22.29943   0.47076184 
   50300   0.98959186   0.20090859    20.603235     22.28816   0.35106455 
   50400   0.99282024   0.19945239    20.595183    22.283494    0.2231714 
   50500   0.99316352   0.19817002    20.592057    22.279599    0.3742386 
   50600   0.97124175   0.20031417    20.611673    22.268486   0.22053177 
   50700    0.9951863   0.20003004      20.5752    22.267636   0.40515444 
   50800   0.99455879   0.19510952     20.59913    22.285705  0.061142165 
   50900   0.99382076   0.18964041    20.591008    22.271007   0.34958535 
   51000   0.99812862   0.18599147    20.603116    22.285926   0.27366627 
   51100    1.0089776     0.182688    20.617591    22.313367   0.25783121 
   51200    1.0191394   0.18256017    20.585778    22.296665   0.25916372 
   51300   0.99983495   0.18539466     20.61362    22.298392   0.51687728 
   51400    1.0171043   0.18725832    20.600992    22.313525   0.34863362 
   51500    1.0202096   0.18753331    20.598409    22.315874  0.055126744 
   51600    1.0225203   0.18662891    20.594853    22.314879   0.41339652 
   51700    1.0357971   0.18957663    20.569965    22.312849   0.45610662 
   51800    1.0144233   0.19194083    20.590913    22.304109    0.3802321 
   51900    1.0078497   0.19105516    20.582135    22.284587   0.44621053 
   52000   0.98563222   0.18910964    20.601876    22.269064   0.27054703 
[...]
  703700   0.51163979  0.094501828    20.327633    21.189403   0.34917509 
  703800   0.50267688  0.094203838    20.343991    21.192021   0.39361581 
  703900   0.50804929  0.094412046    20.333303    21.189599   0.31546125 
  704000   0.50119615  0.095277231    20.331434    21.178317  0.041849029 
Loop time of 0.574196 on 4 procs (4 MPI x 1 OpenMP) for 2000 steps with 4000 atoms

Pair  time (%) = 0.142594 (24.8336)
Bond  time (%) = 0.0628603 (10.9475)
Neigh time (%) = 0.0222838 (3.88087)
Comm  time (%) = 0.139366 (24.2716)
Outpt time (%) = 0.00100201 (0.174507)
Other time (%) = 0.20609 (35.8919)

Nlocal:    1000 ave 1047 max 972 min
Histogram: 1 0 2 0 0 0 0 0 0 1
Nghost:    1063.5 ave 1106 max 1032 min
Histogram: 1 0 1 0 1 0 0 0 0 1
Neighs:    2814.25 ave 3223 max 2562 min
Histogram: 1 0 2 0 0 0 0 0 0 1

Total # of neighbors = 11257
Ave neighs/atom = 2.81425
Ave special neighs/atom = 5.925
Neighbor list builds = 28
Dangerous builds = 0
shell          head -n 2 Temp.txt | tail -n 1 >> Tempfile.txt
shell          head -n 2 Bond.txt | tail -n 1 >> Bondfile.txt
next           myTempStr
next           myBondStr
if "${myBond} <= 0" then "jump imdinput.txt nobonds"
jump           imdinput.txt loop2here

# specifies the run length in timesteps
run            2000
WARNING: Use special bonds = 0,1,1 with bond style fene (../bond_fene.cpp:188)
Memory usage per processor = 5.58834 Mbytes
Step Temp E_pair E_mol TotEng Press 
  704000   0.50119615  0.095277231    20.331434    21.178317  0.041849029 
  704100   0.49930384  0.096425902    20.333954    21.179148   0.25462609 
  704200   0.50327706  0.096628632    20.326343    21.177698   0.30825052 
  704300   0.50027948  0.099572929    20.327985     21.17779 0.0099012894 
  704400   0.49877004  0.099394207    20.324414    21.171776   0.31121484 
  704500   0.50117522  0.098675278    20.318078    21.168328     0.497897 
  704600   0.49580532  0.097310356     20.33251    21.173343   0.14199506 
  704700   0.48456578  0.095868602    20.341575     21.16411  0.078772434 
  704800   0.50350859  0.096101949    20.322856    21.174032   0.13194972 
  704900   0.50362136  0.095745084    20.321834    21.172822    0.2579387 
  705000   0.49273733  0.096866163    20.331878    21.167665   0.39426113 
  705100   0.49699103   0.09735801    20.329513    21.172171   0.24469144 
  705200   0.50643473  0.096611759    20.328606     21.18468   0.27344837 
  705300   0.49872648  0.093646264    20.337217    21.178766   0.28661721 
  705400   0.49954656  0.093916628    20.334744    21.177794   0.24337849 
  705500   0.50565829  0.095821958     20.32725     21.18137   0.36150941 
  705600   0.49677313   0.10229858    20.329989    21.177261    0.2671605 
  705700   0.49728643   0.10490164    20.330789    21.181434   0.26822693 
  705800   0.49941456   0.10678042    20.334508    21.190223   0.19861067 
  705900   0.50027328   0.10462296    20.330972    21.185818   0.30276039 
  706000   0.50200301   0.10305512    20.332307    21.188179   0.33319704 
Loop time of 0.57253 on 4 procs (4 MPI x 1 OpenMP) for 2000 steps with 4000 atoms

Pair  time (%) = 0.141863 (24.7783)
Bond  time (%) = 0.0625022 (10.9169)
Neigh time (%) = 0.0228457 (3.99031)
Comm  time (%) = 0.138681 (24.2225)
Outpt time (%) = 0.00097537 (0.170362)
Other time (%) = 0.205662 (35.9217)

Nlocal:    1000 ave 1014 max 980 min
Histogram: 1 0 0 0 0 1 0 0 1 1
Nghost:    1073.5 ave 1123 max 1037 min
Histogram: 1 1 0 0 0 1 0 0 0 1
Neighs:    2825.75 ave 3033 max 2639 min
Histogram: 1 0 0 1 0 1 0 0 0 1

Total # of neighbors = 11303
Ave neighs/atom = 2.82575
Ave special neighs/atom = 5.925
Neighbor list builds = 29
Dangerous builds = 0
shell          head -n 2 Temp.txt | tail -n 1 >> Tempfile.txt
shell          head -n 2 Bond.txt | tail -n 1 >> Bondfile.txt
next           myTempStr
next           myBondStr
if "${myBond} <= 0" then "jump imdinput.txt nobonds"
jump           imdinput.txt loop2here

# specifies the run length in timesteps
run            2000
WARNING: Use special bonds = 0,1,1 with bond style fene (../bond_fene.cpp:188)
Memory usage per processor = 5.58028 Mbytes
Step Temp E_pair E_mol TotEng Press 
  706000   0.50200301   0.10305512    20.332307    21.188179   0.33319704 
  706100   0.51047024   0.10116275    20.320055    21.186732   0.19196004 
  706200   0.50191652  0.099966384    20.325823    21.178476   0.32165216 
  706300   0.49869344   0.10148285    20.330606    21.179942   0.35338902 
  706400   0.50256114   0.10481481    20.324338    21.182806    0.1369242 
  706500   0.49610894   0.10626557    20.326552    21.176795   0.26572343 
  706600   0.49686627   0.10734505    20.327636    21.180095   0.34929188 
  706700     0.502529   0.10535219    20.329715    21.188672   0.28267091 
  706800   0.50104608   0.10051149    20.332233    21.184126   0.21387991 
  706900   0.50768629  0.097848323    20.324139    21.183327   0.27046741 
  707000   0.50020234  0.099116035    20.331604    21.180836   0.34862062 
  707100   0.50165733  0.099350992    20.329436    21.181085   0.27439425 
  707200    0.4996852   0.10268819    20.330344    21.182372   0.20921811 
  707300   0.50393447   0.10402301    20.322984     21.18272   0.22651834 
  707400   0.49519463   0.10628138    20.332149    21.181037   0.17168271 
  707500   0.49866741   0.10450889    20.330621    21.182944   0.24601963 
  707600    0.5025843   0.10284842     20.32388    21.180416   0.29570578 
  707700   0.49748231   0.10087284     20.32607    21.172979   0.38118322 
  707800   0.49488791    0.1026474    20.331015    21.175809   0.29371103 
  707900    0.4904734   0.10611146    20.327079    21.168717   0.18689767 
  708000   0.49885116   0.10508595    20.328852    21.182028    0.1087962 
Loop time of 0.579786 on 4 procs (4 MPI x 1 OpenMP) for 2000 steps with 4000 atoms

Pair  time (%) = 0.144694 (24.9565)
Bond  time (%) = 0.0623279 (10.7502)
Neigh time (%) = 0.0224427 (3.87086)
Comm  time (%) = 0.141023 (24.3233)
Outpt time (%) = 0.00110769 (0.191052)
Other time (%) = 0.20819 (35.9081)

Nlocal:    1000 ave 1040 max 974 min
Histogram: 1 0 1 1 0 0 0 0 0 1
Nghost:    1082 ave 1094 max 1074 min
Histogram: 1 1 0 0 1 0 0 0 0 1
Neighs:    2871.25 ave 3228 max 2680 min
Histogram: 1 1 1 0 0 0 0 0 0 1

Total # of neighbors = 11485
Ave neighs/atom = 2.87125
Ave special neighs/atom = 5.925
Neighbor list builds = 28
Dangerous builds = 0
shell          head -n 2 Temp.txt | tail -n 1 >> Tempfile.txt
shell          head -n 2 Bond.txt | tail -n 1 >> Bondfile.txt
next           myTempStr
next           myBondStr
if "${myBond} <= 0" then "jump imdinput.txt nobonds"
jump           imdinput.txt loop2here

# specifies the run length in timesteps
run            2000
WARNING: Use special bonds = 0,1,1 with bond style fene (../bond_fene.cpp:188)
Memory usage per processor = 5.58639 Mbytes
Step Temp E_pair E_mol TotEng Press 
  708000   0.49885116   0.10508595    20.328852    21.182028    0.1087962 
  708100    0.4996849    0.1045731    20.330626    21.184539    0.3219923 
  708200   0.50338114   0.10295767    20.330234    21.188074   0.32305175 
  708300   0.50178466   0.10280558    20.330868    21.186163   0.15601207 
  708400   0.49895826   0.10311917    20.332115    21.183484   0.33252922 
  708500   0.50393856     0.100575    20.332103    21.188397   0.25012598 
  708600   0.49472459  0.097925802    20.335992    21.175819   0.37452639 
  708700   0.50017282  0.094593123    20.323508    21.168172   0.26324534 
  708800   0.48621649  0.094376711    20.327212    21.150732   0.19901161 
  708900   0.48635309  0.095303815    20.328354    21.153005   0.11709141 
  709000    0.4944388  0.096561985    20.318478    21.156512   0.26223992 
  709100   0.48932242  0.099121335    20.330147    21.163068   0.44924597 
  709200   0.48912324   0.10251432    20.326842    21.162858   0.18068323 
  709300   0.48752972   0.10366872    20.323613    21.158394   0.14746865 
  709400   0.48916084   0.10366304    20.322333    21.159554   0.29893271 
  709500   0.49675575   0.10291259    20.329156    21.177016    0.3380471 
  709600   0.49479464   0.10301061    20.321487    21.166504   0.24415839 
  709700   0.49648241   0.10170366    20.322037    21.168278   0.35231188 
  709800   0.49081421   0.10200789    20.322882    21.160927   0.25672417 
  709900   0.49674755   0.10158276    20.314667    21.161185   0.29432897 
  710000   0.50436216  0.099699675     20.31115    21.167204   0.17451369 
Loop time of 0.568219 on 4 procs (4 MPI x 1 OpenMP) for 2000 steps with 4000 atoms

Pair  time (%) = 0.144153 (25.3693)
Bond  time (%) = 0.0618051 (10.877)
Neigh time (%) = 0.0225672 (3.97156)
Comm  time (%) = 0.13633 (23.9925)
Outpt time (%) = 0.000984251 (0.173217)
Other time (%) = 0.20238 (35.6165)

Nlocal:    1000 ave 1056 max 964 min
Histogram: 1 0 1 1 0 0 0 0 0 1
Nghost:    1071.25 ave 1090 max 1054 min
Histogram: 1 0 0 1 0 1 0 0 0 1
Neighs:    2812.25 ave 3241 max 2582 min
Histogram: 1 1 1 0 0 0 0 0 0 1

Total # of neighbors = 11249
Ave neighs/atom = 2.81225
Ave special neighs/atom = 5.925
Neighbor list builds = 29
Dangerous builds = 0
shell          head -n 2 Temp.txt | tail -n 1 >> Tempfile.txt
shell          head -n 2 Bond.txt | tail -n 1 >> Bondfile.txt
next           myTempStr
next           myBondStr
if "${myBond} <= 0" then "jump imdinput.txt nobonds"
jump           imdinput.txt loop2here

# specifies the run length in timesteps
run            2000
WARNING: Use special bonds = 0,1,1 with bond style fene (../bond_fene.cpp:188)
Memory usage per processor = 5.59078 Mbytes
Step Temp E_pair E_mol TotEng Press 
  710000   0.50436216  0.099699675     20.31115    21.167204   0.17451369 
  710100   0.50134989  0.099057328    20.325095    21.175989   0.38329045 
  710200   0.49369982  0.099277194    20.326569    21.166211   0.27049787 
  710300   0.50398266  0.099069867    20.313194    21.168049   0.34427594 
  710400   0.50027216  0.098992841    20.319172    21.168386   0.10745054 
  710500   0.50282383  0.099476046    20.321136    21.174659  0.049828342 
  710600   0.50023814   0.10136616    20.321846    21.173382   0.30242721 
  710700    0.5007979   0.10035142    20.321879     21.17324   0.17359465 
  710800   0.50516641  0.098349196     20.32336    21.179269   0.32848616 
  710900   0.50195061  0.099773029    20.328925    21.181435   0.30333979 
  711000   0.50566488   0.10080155      20.3215    21.180609   0.32257204 
  711100   0.50033355   0.10167886    20.333426    21.185417    0.2663434 
  711200   0.49939508   0.10160706     20.32954    21.180053   0.24192523 
  711300   0.49138634   0.10280594    20.333366    21.173068   0.17364453 
  711400    0.4977896    0.1026521    20.325852    21.175002    0.2959755 
  711500   0.49643388   0.10264284    20.329612     21.17672   0.18043178 
  711600   0.50133652   0.10257596    20.321423    21.175816    0.2624187 
  711700   0.49688846   0.10365708    20.325194    21.173997   0.27593022 
  711800   0.50257531   0.10566322    20.324919    21.184256   0.38196811 
  711900   0.49125746   0.10492955    20.335931    21.177562    0.1731948 
  712000   0.49817153   0.10326578    20.324202    21.174539   0.12573143 
Loop time of 0.56634 on 4 procs (4 MPI x 1 OpenMP) for 2000 steps with 4000 atoms

Pair  time (%) = 0.140339 (24.78)
Bond  time (%) = 0.0615439 (10.8669)
Neigh time (%) = 0.0219267 (3.87165)
Comm  time (%) = 0.138342 (24.4274)
Outpt time (%) = 0.00100517 (0.177486)
Other time (%) = 0.203183 (35.8765)

Nlocal:    1000 ave 1034 max 978 min
Histogram: 1 1 0 0 1 0 0 0 0 1
Nghost:    1083.75 ave 1114 max 1064 min
Histogram: 1 1 0 0 1 0 0 0 0 1
Neighs:    2810.5 ave 3019 max 2686 min
Histogram: 2 0 0 0 1 0 0 0 0 1

Total # of neighbors = 11242
Ave neighs/atom = 2.8105
Ave special neighs/atom = 5.925
Neighbor list builds = 28
Dangerous builds = 0
shell          head -n 2 Temp.txt | tail -n 1 >> Tempfile.txt
shell          head -n 2 Bond.txt | tail -n 1 >> Bondfile.txt
next           myTempStr
next           myBondStr
if "${myBond} <= 0" then "jump imdinput.txt nobonds"
jump           imdinput.txt loop2here

# specifies the run length in timesteps
run            2000
WARNING: Use special bonds = 0,1,1 with bond style fene (../bond_fene.cpp:188)
Memory usage per processor = 5.58419 Mbytes
Step Temp E_pair E_mol TotEng Press 
  712000   0.49817153   0.10326578    20.324202    21.174539   0.12573143 
  712100   0.49783042   0.10278754     20.32836    21.177707   0.25000087 
  712200   0.49250904   0.10078806     20.33228    21.171647   0.27961882 
  712300   0.50244274  0.098380029    20.326793    21.178649   0.30865325 
  712400   0.50227434  0.096529995    20.335428    21.185181   0.30090482 
  712500   0.49981212  0.093418444    20.336197    21.179146   0.26162393 
  712600   0.50361499  0.090988377    20.330314    21.176536    0.3020401 
  712700   0.50306618  0.090151592    20.333564    21.178126   0.23962739 
  712800   0.50051764  0.090433689    20.331012    21.172034  0.048933419 
  712900   0.50220573  0.091289716    20.334281    21.178691   0.46481368 
  713000   0.50487203  0.092627463     20.33525    21.184996   0.20367389 
  713100   0.50380096  0.094475489    20.337849    21.187837   0.17727909 
  713200   0.50963106  0.097270452    20.335326    21.196852   0.41097484 
  713300   0.51230674   0.10045889    20.331225    21.199952   0.17582724 
  713400   0.51204494   0.10077292    20.334133    21.202781   0.23467478 
  713500   0.52356422  0.099012135    20.322831    21.206993   0.16342408 
  713600   0.50457251  0.097302659    20.336184    21.190156   0.23534127 
  713700   0.50402148  0.095965596    20.334807    21.186616   0.11489454 
  713800   0.50345875  0.097011876    20.333332    21.185343   0.17680669 
  713900   0.50443423  0.099229126    20.326161    21.181852   0.36528053 
  714000    0.4992477   0.10029478    20.327093    21.176072   0.28551104 
Loop time of 0.584562 on 4 procs (4 MPI x 1 OpenMP) for 2000 steps with 4000 atoms

Pair  time (%) = 0.143778 (24.5959)
Bond  time (%) = 0.0627707 (10.7381)
Neigh time (%) = 0.0226203 (3.86961)
Comm  time (%) = 0.145221 (24.8427)
Outpt time (%) = 0.00117618 (0.201207)
Other time (%) = 0.208996 (35.7525)

Nlocal:    1000 ave 1031 max 948 min
Histogram: 1 0 0 0 0 0 1 0 1 1
Nghost:    1069.5 ave 1081 max 1060 min
Histogram: 1 0 0 1 1 0 0 0 0 1
Neighs:    2846.75 ave 3096 max 2445 min
Histogram: 1 0 0 0 0 0 1 1 0 1

Total # of neighbors = 11387
Ave neighs/atom = 2.84675
Ave special neighs/atom = 5.925
Neighbor list builds = 28
Dangerous builds = 0
shell          head -n 2 Temp.txt | tail -n 1 >> Tempfile.txt
shell          head -n 2 Bond.txt | tail -n 1 >> Bondfile.txt
next           myTempStr
next           myBondStr
if "${myBond} <= 0" then "jump imdinput.txt nobonds"
jump           imdinput.txt loop2here

# specifies the run length in timesteps
run            2000
WARNING: Use special bonds = 0,1,1 with bond style fene (../bond_fene.cpp:188)
Memory usage per processor = 5.58443 Mbytes
Step Temp E_pair E_mol TotEng Press 
  714000    0.4992477   0.10029478    20.327093    21.176072   0.28551104 
  714100   0.49767582   0.10007972    20.324629    21.171036    0.2829519 
  714200   0.49181193   0.10057545    20.333107    21.171216   0.35556642 
  714300   0.49816596    0.1006486    20.324607    21.172317   0.26310271 
  714400   0.49274668   0.10083224    20.339949    21.179717   0.19179363 
  714500    0.4974896    0.1015472    20.332742    21.180337   0.18666363 
  714600   0.50381152   0.10005386    20.323685    21.179267   0.25690539 
  714700    0.5044117    0.1001255    20.323602    21.180156    0.2105271 
  714800   0.50335037  0.099191917    20.327729    21.181758   0.35973927 
  714900   0.50143557  0.098668204    20.326598    21.177231   0.47576173 
  715000    0.5004268  0.096768999     20.32652    21.173742   0.34410217 
  715100   0.49918816  0.095157273    20.331348      21.1751   0.14252075 
  715200   0.50775651  0.094281161    20.328198    21.183924    0.1806529 
  715300   0.50378499   0.09370525    20.335162    21.184356   0.30738818 
  715400   0.50030735  0.094247456    20.329663    21.174184   0.23769799 
  715500   0.50402869    0.0964496    20.323006     21.17531    0.3522467 
  715600   0.49952324  0.097490796    20.331888    21.178476   0.18998936 
  715700   0.49884419  0.098215167    20.332298    21.178592   0.30513041 
  715800   0.50380026  0.099159142    20.330586    21.185256  0.083461917 
  715900   0.50663605   0.10015309    20.331482    21.191399   0.21454998 
  716000   0.50779887   0.10077301    20.334347    21.196628    0.3821328 
Loop time of 0.603115 on 4 procs (4 MPI x 1 OpenMP) for 2000 steps with 4000 atoms

Pair  time (%) = 0.144481 (23.9558)
Bond  time (%) = 0.0612607 (10.1574)
Neigh time (%) = 0.0239255 (3.967)
Comm  time (%) = 0.16194 (26.8507)
Outpt time (%) = 0.00101578 (0.168423)
Other time (%) = 0.210491 (34.9007)

Nlocal:    1000 ave 1046 max 951 min
Histogram: 1 0 0 0 1 0 1 0 0 1
Nghost:    1076.25 ave 1118 max 1051 min
Histogram: 1 1 0 1 0 0 0 0 0 1
Neighs:    2819.5 ave 3212 max 2450 min
Histogram: 1 0 0 1 0 1 0 0 0 1

Total # of neighbors = 11278
Ave neighs/atom = 2.8195
Ave special neighs/atom = 5.925
Neighbor list builds = 28
Dangerous builds = 0
shell          head -n 2 Temp.txt | tail -n 1 >> Tempfile.txt
shell          head -n 2 Bond.txt | tail -n 1 >> Bondfile.txt
next           myTempStr
next           myBondStr
if "${myBond} <= 0" then "jump imdinput.txt nobonds"
jump           imdinput.txt loop2here

# specifies the run length in timesteps
run            2000
WARNING: Use special bonds = 0,1,1 with bond style fene (../bond_fene.cpp:188)
Memory usage per processor = 5.58834 Mbytes
Step Temp E_pair E_mol TotEng Press 
  716000   0.50779887   0.10077301    20.334347    21.196628    0.3821328 
  716100   0.50123498   0.10156892    20.334476    21.187709   0.24502302 
  716200   0.49545513    0.1021308    20.335927    21.181055   0.28066377 
  716300   0.49268846   0.10225801    20.336265    21.177371   0.29307039 
  716400   0.50218322   0.10065762    20.321914    21.175658   0.32544398 
  716500   0.49739005  0.099679221    20.335677    21.181255  0.045709488 
  716600   0.49862218  0.096514852    20.334405    21.178666   0.41052101 
  716700   0.50280501  0.094850812    20.330306    21.179176   0.17941293 
  716800   0.51111706  0.094623899    20.323217    21.184325   0.19004128 
  716900   0.51592422  0.095558945    20.326258     21.19551   0.43629079 
  717000   0.50938879   0.09512045     20.32898    21.187993    0.3504354 
  717100   0.50901144  0.096867443    20.329508    21.189702   0.17872248 
  717200   0.49873984  0.098590608    20.332108    21.178622  0.086962305 
  717300   0.49830436  0.098413511    20.328896    21.174579   0.39756665 
  717400   0.50417631  0.098558831    20.321476     21.17611   0.14865053 
  717500   0.49914042  0.097482634    20.325215    21.171221   0.37187638 
  717600   0.49692907   0.09785962    20.330363     21.17343    0.3082144 
  717700   0.50023385  0.096830588    20.332911    21.179905   0.38739294 
  717800   0.50514961  0.096548432    20.328397    21.182481   0.28534668 
  717900   0.50157215  0.097696252    20.328252    21.178119  0.083562278 
  718000   0.50431719  0.098954768     20.32664    21.181882   0.38037373 
Loop time of 0.584944 on 4 procs (4 MPI x 1 OpenMP) for 2000 steps with 4000 atoms

Pair  time (%) = 0.140895 (24.0869)
Bond  time (%) = 0.0610587 (10.4384)
Neigh time (%) = 0.0236856 (4.04921)
Comm  time (%) = 0.151317 (25.8687)
Outpt time (%) = 0.000991523 (0.169507)
Other time (%) = 0.206996 (35.3873)

Nlocal:    1000 ave 1034 max 948 min
Histogram: 1 0 0 0 0 1 0 0 1 1
Nghost:    1104.5 ave 1128 max 1066 min
Histogram: 1 0 0 0 0 0 1 0 1 1
Neighs:    2816.5 ave 3103 max 2492 min
Histogram: 1 0 0 0 0 1 1 0 0 1

Total # of neighbors = 11266
Ave neighs/atom = 2.8165
Ave special neighs/atom = 5.925
Neighbor list builds = 29
Dangerous builds = 0
