#homopolymer 

      4000    atoms
      3975    bonds
         0    angles
         0    dihedrals

         2    atom types
         2    bond types
         0    angle types
         0    dihedral types

      -8.37883606       8.37883606   xlo xhi
      -8.37883606       8.37883606   ylo yhi
      -8.37883606       8.37883606   zlo zhi

Atoms

     1      1  2    4.4802   -0.7831   -1.7877      0      0      0
     2      1  2    3.8705   -0.1458   -1.3839      0      0      0
     3      1  2    3.9932    0.3918   -0.5859      0      0      0
     4      1  2    4.3797    0.9613    0.0977      0      0      0
     5      1  2    4.2383    1.9185    0.1659      0      0      0
     6      1  2    4.1395    2.7215    0.7009      0      0      0
     7      1  2    3.7488    3.2687    1.4002      0      0      0
     8      1  2    2.9664    3.3161    1.9716      0      0      0
     9      1  2    3.6922    2.6741    2.0166      0      0      0
    10      1  2    3.5031    1.8423    2.4783      0      0      0
    11      1  2    4.1780    1.2079    2.7666      0      0      0
    12      1  2    3.8633    1.4230    3.6586      0      0      0
    13      1  2    3.3072    2.0672    3.1931      0      0      0
    14      1  2    3.4241    1.7617    4.1063      0      0      0
    15      1  2    3.9936    2.3644    4.6095      0      0      0
    16      1  2    3.3160    1.9506    4.0522      0      0      0
    17      1  2    3.6716    2.7998    3.7466      0      0      0
    18      1  2    3.2855    3.6431    3.4627      0      0      0
    19      1  2    3.2922    3.0051    2.7320      0      0      0
    20      1  2    3.5724    2.1886    2.2898      0      0      0
    21      1  2    2.9973    2.9693    2.3140      0      0      0
    22      1  2    2.9838    3.8849    2.6339      0      0      0
    23      1  2    3.4670    3.3878    1.9555      0      0      0
    24      1  2    3.0974    2.8678    1.2248      0      0      0
    25      1  2    2.1993    2.9220    0.8625      0      0      0
    26      1  2    2.8977    2.8230    0.1966      0      0      0
    27      1  2    3.8483    3.0040    0.2640      0      0      0
    28      1  2    4.0256    3.8305    0.7396      0      0      0
    29      1  2    4.2628    4.6150    0.2207      0      0      0
    30      1  2    4.9279    4.8885   -0.4301      0      0      0
    31      1  2    5.7657    5.3490   -0.5944      0      0      0
    32      1  2    5.9789    5.9955    0.0966      0      0      0
    33      1  2    5.4879    6.6121    0.6619      0      0      0
    34      1  2    4.9393    7.3830    0.8755      0      0      0
    35      1  2    5.6131    8.0303    0.6150      0      0      0
    36      1  2    5.1291    7.3068    1.0431      0      0      0
    37      1  2    4.9158    7.8398    0.2612      0      0      0
    38      1  2    5.5855    7.7760   -0.4377      0      0      0
    39      1  2    6.4498    7.4033   -0.6722      0      0      0
    40      1  2    6.5449    8.2908   -1.0520      0      0      0
    41      1  2    6.7532   -8.0657   -0.1938      0      1      0
    42      1  2    7.2741   -7.6284   -0.8855      0      1      0
    43      1  2    8.0350   -7.6773   -1.4850      0      1      0
    44      1  2   -8.2149   -8.1979   -2.1269      1      1      0
    45      1  2    7.9719   -7.5363   -1.7058      0      1      0
    46      1  2    8.3162   -8.3635   -2.0776      0      1      0
    47      1  2   -7.4883    8.2876   -2.2221      1      0      0
    48      1  2   -6.6510    8.2336   -2.7088      1      0      0
    49      1  2   -6.0368   -7.8743   -3.0850      1      1      0
    50      1  2   -5.9159   -7.3813   -3.9116      1      1      0
    51      1  2   -5.7882   -7.8678   -3.0822      1      1      0
    52      1  2   -5.6466   -7.2159   -3.7863      1      1      0
    53      1  2   -4.8904   -6.8511   -4.2722      1      1      0
    54      1  2   -5.4549   -6.3337   -4.8677      1      1      0
    55      1  2   -5.8853   -6.2002   -4.0087      1      1      0
    56      1  2   -6.6430   -6.7571   -4.2468      1      1      0
    57      1  2   -6.5507   -7.4805   -3.6072      1      1      0
    58      1  2   -6.3647   -7.0072   -4.4332      1      1      0
    59      1  2   -6.1692   -6.4454   -3.6671      1      1      0
    60      1  2   -5.8336   -7.0871   -4.3124      1      1      0
    61      1  2   -5.5725   -6.1743   -4.1135      1      1      0
    62      1  2   -5.0563   -5.6674   -4.7596      1      1      0
    63      1  2   -5.3174   -6.0488   -3.9068      1      1      0
    64      1  2   -6.2179   -5.7118   -3.7792      1      1      0
    65      1  2   -7.0440   -5.4811   -4.2322      1      1      0
    66      1  2   -7.3639   -5.6229   -3.3275      1      1      0
    67      1  2   -6.4278   -5.4473   -3.5111      1      1      0
    68      1  2   -7.2997   -5.0241   -3.5498      1      1      0
    69      1  2   -6.6845   -5.6444   -3.9713      1      1      0
    70      1  2   -6.1072   -5.4688   -4.7307      1      1      0
    71      1  2   -5.2302   -5.8793   -4.7881      1      1      0
    72      1  2   -4.7695   -5.1685   -5.2608      1      1      0
    73      1  2   -4.8734   -5.5317   -6.1543      1      1      0
    74      1  2   -5.6055   -5.0757   -6.5980      1      1      0
    75      1  2   -6.3469   -5.4884   -7.0680      1      1      0
    76      1  2   -6.3198   -5.6683   -8.0208      1      1      0
    77      1  2   -6.5574   -5.0673    8.0135      1      1     -1
    78      1  2   -6.3215   -4.2543    7.5399      1      1     -1
    79      1  2   -6.3747   -4.2188    6.5720      1      1     -1
    80      1  2   -5.9100   -4.9966    6.2257      1      1     -1
    81      1  2   -6.4589   -4.3607    6.7106      1      1     -1
    82      1  2   -6.8888   -3.8576    6.0014      1      1     -1
    83      1  2   -7.4814   -4.6229    6.0649      1      1     -1
    84      1  2   -6.9284   -5.2607    6.5429      1      1     -1
    85      1  2   -7.5841   -4.6176    6.2306      1      1     -1
    86      1  2   -7.8562   -4.1273    5.4391      1      1     -1
    87      1  2   -7.1952   -4.1602    6.1483      1      1     -1
    88      1  2   -6.3077   -3.9121    6.4511      1      1     -1
    89      1  2   -5.5792   -3.2842    6.3251      1      1     -1
    90      1  2   -5.7260   -2.3317    6.2152      1      1     -1
    91      1  2   -5.3903   -1.8740    7.0018      1      1     -1
    92      1  2   -5.5636   -1.2049    6.3212      1      1     -1
    93      1  2   -4.9489   -0.6631    5.8021      1      1     -1
    94      1  2   -4.5846   -1.0637    4.9973      1      1     -1
    95      1  2   -5.1734   -1.5092    5.6264      1      1     -1
    96      1  2   -4.7558   -2.0394    6.3232      1      1     -1
    97      1  2   -4.8169   -1.4722    7.1077      1      1     -1
    98      1  2   -4.1959   -0.9503    6.5759      1      1     -1
    99      1  2   -3.5817   -0.3915    7.0773      1      1     -1
   100      1  2   -4.0712    0.0478    6.3644      1      1     -1
   101      1  2   -3.8615   -0.7519    5.8571      1      1     -1
   102      1  2   -3.3154   -1.2659    6.4724      1      1     -1
   103      1  2   -4.0726   -1.4030    7.0630      1      1     -1
   104      1  2   -3.4354   -1.8810    6.5095      1      1     -1
   105      1  2   -2.6128   -1.6605    6.9739      1      1     -1
   106      1  2   -2.0325   -2.1897    6.4045      1      1     -1
   107      1  2   -2.1488   -1.6394    7.1948      1      1     -1
   108      1  2   -2.8449   -2.2466    6.8988      1      1     -1
   109      1  2   -2.3518   -1.4185    7.0078      1      1     -1
   110      1  2   -2.7789   -0.6845    6.5390      1      1     -1
   111      1  2   -2.9649   -1.2608    5.7812      1      1     -1
   112      1  2   -2.0698   -1.6065    5.9234      1      1     -1
   113      1  2   -2.2442   -0.9741    5.2089      1      1     -1
   114      1  2   -2.8892   -1.6044    4.8517      1      1     -1
   115      1  2   -3.0713   -1.9087    5.7545      1      1     -1
   116      1  2   -2.3858   -1.2648    5.9925      1      1     -1
   117      1  2   -2.7146   -1.9509    6.5942      1      1     -1
   118      1  2   -3.3579   -1.3858    6.1385      1      1     -1
   119      1  2   -2.8630   -0.8765    6.7993      1      1     -1
   120      1  2   -3.7539   -0.6919    7.1356      1      1     -1
   121      1  2   -3.6983   -1.4103    6.4862      1      1     -1
   122      1  2   -3.6085   -0.4706    6.7095      1      1     -1
   123      1  2   -3.8205    0.0439    7.5040      1      1     -1
   124      1  2   -4.2652   -0.6105    6.9428      1      1     -1
   125      1  2   -4.9526   -0.0723    6.5200      1      1     -1
   126      1  2   -4.7513    0.8664    6.3816      1      1     -1
   127      1  2   -5.2648    0.3800    7.0454      1      1     -1
   128      1  2   -4.8255   -0.0418    6.2904      1      1     -1
   129      1  2   -4.8557   -0.6519    7.0439      1      1     -1
   130      1  2   -5.0148   -0.9303    7.9594      1      1     -1
   131      1  2   -5.2608   -1.6897    7.4084      1      1     -1
   132      1  2   -4.6511   -2.3408    7.7892      1      1     -1
   133      1  2   -5.4025   -2.9523    7.7402      1      1     -1
   134      1  2   -4.5775   -3.3314    7.3990      1      1     -1
   135      1  2   -4.1815   -2.4623    7.2293      1      1     -1
   136      1  2   -4.4579   -1.8907    6.4960      1      1     -1
   137      1  2   -3.8803   -2.6021    6.1777      1      1     -1
   138      1  2   -4.5592   -2.1097    5.6904      1      1     -1
   139      1  2   -3.6544   -2.4585    5.6686      1      1     -1
   140      1  2   -3.8940   -2.0493    6.5148      1      1     -1
   141      1  2   -3.2601   -1.4599    6.9526      1      1     -1
   142      1  2   -3.1451   -0.9538    6.1331      1      1     -1
   143      1  2   -2.8504   -0.2432    6.7238      1      1     -1
   144      1  2   -1.9602    0.1338    6.8027      1      1     -1
   145      1  2   -1.4139    0.1310    6.0012      1      1     -1
   146      1  2   -1.6625   -0.6709    6.4870      1      1     -1
   147      1  2   -1.4261    0.0212    7.1242      1      1     -1
   148      1  2   -1.4165    0.8624    7.6071      1      1     -1
   149      1  2   -1.7361    1.7224    7.9219      1      1     -1
   150      1  2   -1.1478    1.3934    7.2244      1      1     -1
   151      1  2   -0.4570    2.0685    7.3142      1      1     -1
   152      1  2    0.2406    1.4340    7.5415      1      1     -1
   153      1  2    0.7402    2.0031    6.9354      1      1     -1
   154      1  2    1.4536    2.0633    7.5899      1      1     -1
   155      1  2    0.6147    1.5763    7.5859      1      1     -1
   156      1  2   -0.1689    1.5643    8.1574      1      1     -1
   157      1  2    0.0437    0.6506   -8.3534      1      1      0
   158      1  2   -0.7090    0.0594    8.2465      1      1     -1
   159      1  2   -0.3909    0.6537   -7.8136      1      1      0
   160      1  2   -1.2169    0.7850   -7.3223      1      1      0
   161      2  1    5.6527   -2.4265    4.4908      0      0      0
   162      2  1    6.3464   -2.0041    5.0211      0      0      0
   163      2  1    7.0888   -2.5603    5.3049      0      0      0
   164      2  1    7.1218   -3.2947    5.9377      0      0      0
   165      2  1    7.5093   -2.8198    5.1859      0      0      0
   166      2  1    8.1210   -3.5577    5.3347      0      0      0
   167      2  1   -8.0873   -2.8206    5.6441      1      0      0
   168      2  1   -8.2024   -2.4621    6.5380      1      0      0
   169      2  1   -7.5041   -1.9126    6.9269      1      0      0
   170      2  1    8.3040   -1.7734    7.0676      0      0      0
   171      2  1   -7.8027   -1.0910    7.2945      1      0      0
   172      2  1   -8.2104   -0.4309    6.7124      1      0      0
   173      2  1   -8.2638    0.4343    7.1477      1      0      0
   174      2  1   -7.6353    1.1641    7.0328      1      0      0
   175      2  1   -7.3802    1.8869    6.4383      1      0      0
   176      2  1   -6.5165    1.4919    6.2412      1      0      0
   177      2  1   -5.9052    1.4236    5.4912      1      0      0
   178      2  1   -6.8087    1.4047    5.1386      1      0      0
   179      2  1   -6.1600    1.6048    5.8315      1      0      0
   180      2  1   -6.8405    1.2526    6.4262      1      0      0
   181      2  1   -7.4640    0.5486    6.6639      1      0      0
   182      2  1    8.3645    0.7685    6.8350      0      0      0
   183      2  1    7.7481    0.4348    6.1645      0      0      0
   184      2  1    7.5306    0.9815    5.3934      0      0      0
   185      2  1    7.4010    0.2239    4.8016      0      0      0
   186      2  1    6.8678   -0.4010    5.3174      0      0      0
   187      2  1    7.4478    0.1286    4.7483      0      0      0
   188      2  1    7.0245   -0.6874    5.0579      0      0      0
   189      2  1    6.3426   -0.6973    5.7477      0      0      0
   190      2  1    7.1441   -0.2876    6.1093      0      0      0
   191      2  1    7.5376   -1.1643    5.9772      0      0      0
   192      2  1    8.1739   -0.5980    5.5133      0      0      0
   193      2  1   -8.2447   -1.4515    5.8255      1      0      0
   194      2  1    7.8530   -1.7426    5.1770      0      0      0
   195      2  1    8.2342   -0.9774    4.7188      0      0      0
   196      2  1    8.1156   -0.2828    5.3855      0      0      0
   197      2  1   -8.3595   -0.7372    6.1945      1      0      0
   198      2  1   -7.6015   -0.2413    5.8474      1      0      0
   199      2  1   -6.6324   -0.2529    5.8078      1      0      0
   200      2  1   -6.4670   -1.0253    5.2448      1      0      0
   201      2  1   -5.8614   -1.4238    5.8892      1      0      0
   202      2  1   -5.5468   -0.9130    5.1270      1      0      0
   203      2  1   -5.3976   -0.0779    4.6566      1      0      0
   204      2  1   -4.5382   -0.0103    4.2119      1      0      0
   205      2  1   -4.3714    0.0255    3.2570      1      0      0
   206      2  1   -5.0781   -0.5054    2.8574      1      0      0
   207      2  1   -5.2690   -1.4470    2.7241      1      0      0
   208      2  1   -4.7230   -2.1414    3.1248      1      0      0
   209      2  1   -5.0596   -2.6619    2.3787      1      0      0
   210      2  1   -4.4983   -2.0388    1.8913      1      0      0
   211      2  1   -3.9672   -2.2246    1.1012      1      0      0
   212      2  1   -3.0430   -2.5191    1.1060      1      0      0
   213      2  1   -3.5498   -3.1299    0.5484      1      0      0
   214      2  1   -4.2534   -2.5961    0.1472      1      0      0
   215      2  1   -4.4040   -3.3612    0.7241      1      0      0
   216      2  1   -4.7171   -3.2248    1.6320      1      0      0
   217      2  1   -5.2943   -2.5806    1.1930      1      0      0
   218      2  1   -4.5646   -2.3656    1.7948      1      0      0
   219      2  1   -4.0167   -2.6092    1.0323      1      0      0
   220      2  1   -4.7201   -2.6801    1.6965      1      0      0
   221      2  1   -5.3514   -3.1726    2.2440      1      0      0
   222      2  1   -5.2861   -2.2112    2.1328      1      0      0
   223      2  1   -4.5945   -1.9227    1.5170      1      0      0
   224      2  1   -4.8233   -1.0237    1.8004      1      0      0
   225      2  1   -5.3688   -1.4484    1.1201      1      0      0
   226      2  1   -5.9568   -2.1962    1.3100      1      0      0
   227      2  1   -6.7581   -2.1821    1.8565      1      0      0
   228      2  1   -6.2437   -2.1264    2.6769      1      0      0
   229      2  1   -6.1808   -2.1527    1.7093      1      0      0
   230      2  1   -5.5746   -1.8225    2.3908      1      0      0
   231      2  1   -5.2714   -2.4575    3.0584      1      0      0
   232      2  1   -4.4086   -2.5449    3.4930      1      0      0
   233      2  1   -3.7302   -2.8158    2.8548      1      0      0
   234      2  1   -4.0791   -2.3492    2.0792      1      0      0
   235      2  1   -4.7710   -3.0262    2.1424      1      0      0
   236      2  1   -4.1168   -3.7299    2.0093      1      0      0
   237      2  1   -3.4375   -4.1660    1.4715      1      0      0
   238      2  1   -3.0857   -4.8502    0.8807      1      0      0
   239      2  1   -3.6312   -4.7521    0.0846      1      0      0
   240      2  1   -2.7616   -4.3256    0.0328      1      0      0
   241      2  1   -2.1525   -3.9407    0.6823      1      0      0
   242      2  1   -2.3521   -4.5335   -0.0591      1      0      0
   243      2  1   -3.1152   -4.9668   -0.4726      1      0      0
   244      2  1   -2.3523   -4.7962    0.1018      1      0      0
   245      2  1   -1.6846   -5.4761   -0.0793      1      0      0
   246      2  1   -1.1752   -4.7777   -0.5194      1      0      0
   247      2  1   -0.4835   -5.0813   -1.1279      1      0      0
   248      2  1    0.1736   -5.5945   -0.6322      1      0      0
   249      2  1    1.0621   -5.4146   -0.9773      1      0      0
   250      2  1    1.6135   -5.0900   -1.7063      1      0      0
   251      2  1    1.6653   -4.3083   -2.2784      1      0      0
   252      2  1    0.7262   -4.2894   -2.0362      1      0      0
   253      2  1    0.2326   -3.6545   -2.5786      1      0      0
   254      2  1   -0.1826   -4.3997   -3.0403      1      0      0
   255      2  1   -0.7292   -5.0081   -2.5188      1      0      0
   256      2  1   -1.3371   -5.7505   -2.6609      1      0      0
   257      2  1   -0.6294   -6.4095   -2.5856      1      0      0
   258      2  1   -0.3652   -6.7031   -1.6997      1      0      0
   259      2  1    0.2613   -6.5123   -0.9842      1      0      0
   260      2  1    0.0030   -6.7865   -0.0903      1      0      0
   261      2  1   -0.9553   -6.9367   -0.0992      1      0      0
   262      2  1   -0.4854   -7.3918    0.6170      1      0      0
   263      2  1   -1.3750   -7.0384    0.7737      1      0      0
   264      2  1   -1.2065   -7.3134   -0.1411      1      0      0
   265      2  1   -0.7930   -7.8171   -0.8596      1      0      0
   266      2  1    0.0511   -7.4392   -1.1523      1      0      0
   267      2  1   -0.8423   -7.8145   -1.1080      1      0      0
   268      2  1   -0.0282   -7.8670   -0.5833      1      0      0
   269      2  1    0.5637   -7.1095   -0.7131      1      0      0
   270      2  1    0.0399   -7.9204   -0.6184      1      0      0
   271      2  1    0.3627   -7.2430   -0.0037      1      0      0
   272      2  1   -0.0481   -7.5747    0.8100      1      0      0
   273      2  1   -0.7145   -8.1763    1.1772      1      0      0
   274      2  1   -0.7397   -7.6184    0.3841      1      0      0
   275      2  1   -0.4855   -8.1477    1.1562      1      0      0
   276      2  1   -0.9268    8.0842    1.8416      1     -1      0
   277      2  1   -0.1539    8.2687    2.3978      1     -1      0
   278      2  1    0.2481    7.6254    3.0025      1     -1      0
   279      2  1    0.9316    8.1664    3.4281      1     -1      0
   280      2  1    1.2772   -8.0568    4.1600      1      0      0
   281      2  1    1.3017   -7.5467    4.9847      1      0      0
   282      2  1    0.8955   -6.7082    5.2546      1      0      0
   283      2  1    1.0487   -6.5373    4.3121      1      0      0
   284      2  1    1.5603   -6.6659    3.4980      1      0      0
   285      2  1    1.2445   -5.7942    3.7831      1      0      0
   286      2  1    1.9935   -6.0190    4.3571      1      0      0
   287      2  1    2.6180   -5.2946    4.1954      1      0      0
   288      2  1    2.9414   -6.1766    3.9538      1      0      0
   289      2  1    2.8707   -6.1264    4.9200      1      0      0
   290      2  1    2.4414   -6.6138    5.6404      1      0      0
   291      2  1    3.0997   -6.5142    4.9350      1      0      0
   292      2  1    2.5355   -6.1869    4.2171      1      0      0
   293      2  1    3.4202   -6.3277    4.5891      1      0      0
   294      2  1    4.1032   -6.9748    4.8251      1      0      0
   295      2  1    4.7716   -6.8092    4.1420      1      0      0
   296      2  1    4.8878   -6.1678    3.4236      1      0      0
   297      2  1    5.3236   -6.4366    2.5998      1      0      0
   298      2  1    4.5183   -6.2987    3.1225      1      0      0
   299      2  1    4.7258   -7.2056    3.3970      1      0      0
   300      2  1    5.3191   -6.4434    3.3088      1      0      0
   301      2  1    4.6449   -6.8913    2.7743      1      0      0
   302      2  1    5.1603   -6.3895    2.1236      1      0      0
   303      2  1    4.3922   -6.0763    2.6264      1      0      0
   304      2  1    3.9154   -5.7118    3.3885      1      0      0
   305      2  1    3.2764   -5.5966    4.1091      1      0      0
   306      2  1    3.6965   -5.3815    3.2616      1      0      0
   307      2  1    3.1834   -4.8199    2.6597      1      0      0
   308      2  1    3.7682   -4.8040    1.8860      1      0      0
   309      2  1    3.1951   -4.0652    1.6278      1      0      0
   310      2  1    3.7584   -3.4157    1.1787      1      0      0
   311      2  1    3.1149   -3.7816    1.8056      1      0      0
   312      2  1    3.9323   -3.2596    1.7854      1      0      0
   313      2  1    3.3548   -2.7589    1.1881      1      0      0
   314      2  1    2.9375   -3.2663    0.4745      1      0      0
   315      2  1    2.2212   -3.9183    0.4238      1      0      0
   316      2  1    2.3055   -3.3767    1.2241      1      0      0
   317      2  1    3.2461   -3.6018    1.1502      1      0      0
   318      2  1    2.3144   -3.5529    0.8849      1      0      0
   319      2  1    3.1518   -4.0344    0.9735      1      0      0
   320      2  1    2.6847   -4.7297    0.4842      1      0      0
   321      3  1   -4.9103    0.4833   -1.0686      0      0      0
   322      3  1   -5.8455    0.6774   -0.8992      0      0      0
   323      3  1   -5.1802    0.6768   -1.6050      0      0      0
   324      3  1   -4.4345    0.1371   -1.9112      0      0      0
   325      3  1   -5.0503    0.4962   -2.5690      0      0      0
   326      3  1   -5.4803   -0.3354   -2.3151      0      0      0
   327      3  1   -5.5060    0.1620   -3.1475      0      0      0
   328      3  1   -6.0286    0.3563   -2.3537      0      0      0
   329      3  1   -5.5703    0.1676   -1.5200      0      0      0
   330      3  1   -4.7586    0.6880   -1.4140      0      0      0
   331      3  1   -5.3255    0.0082   -1.0173      0      0      0
   332      3  1   -4.9172   -0.2003   -1.8721      0      0      0
   333      3  1   -5.1999   -1.0851   -2.1515      0      0      0
   334      3  1   -5.4766   -0.2434   -2.5462      0      0      0
   335      3  1   -6.2029   -0.0606   -3.1628      0      0      0
   336      3  1   -5.5681    0.2235   -2.4866      0      0      0
   337      3  1   -6.2325   -0.3301   -2.9258      0      0      0
   338      3  1   -5.3539   -0.6727   -3.1532      0      0      0
   339      3  1   -6.0611   -0.9149   -3.7713      0      0      0
   340      3  1   -6.8517   -0.3944   -3.9835      0      0      0
   341      3  1   -6.0538   -0.8629   -4.2745      0      0      0
   342      3  1   -6.9146   -0.4327   -4.3960      0      0      0
   343      3  1   -6.5150   -1.0566   -3.7699      0      0      0
   344      3  1   -5.9252   -0.7299   -4.4672      0      0      0
   345      3  1   -6.3870   -0.9543   -3.6443      0      0      0
   346      3  1   -6.1460   -1.0833   -4.5749      0      0      0
   347      3  1   -6.1806   -2.0049   -4.8757      0      0      0
   348      3  1   -5.9718   -1.2374   -4.3204      0      0      0
   349      3  1   -6.3378   -0.4244   -4.7025      0      0      0
   350      3  1   -5.9529    0.1133   -3.9929      0      0      0
   351      3  1   -5.2851    0.5694   -4.5286      0      0      0
   352      3  1   -6.0144    0.0267   -4.1902      0      0      0
   353      3  1   -5.7513    0.2784   -5.0893      0      0      0
   354      3  1   -6.3580    0.9816   -4.8093      0      0      0
   355      3  1   -5.4487    0.6516   -4.7378      0      0      0
   356      3  1   -6.1707    0.9182   -5.3281      0      0      0
   357      3  1   -6.4160    0.7655   -4.4022      0      0      0
   358      3  1   -5.7908    1.2732   -4.9428      0      0      0
   359      3  1   -6.0837    0.3525   -4.8567      0      0      0
   360      3  1   -6.3385    0.6618   -5.7400      0      0      0
   361      3  1   -6.3496    1.4113   -5.1243      0      0      0
   362      3  1   -5.6679    0.9413   -5.6295      0      0      0
   363      3  1   -5.1047    1.4656   -6.2202      0      0      0
   364      3  1   -5.6641    0.7576   -6.5761      0      0      0
   365      3  1   -5.9358    1.3597   -5.8658      0      0      0
   366      3  1   -6.2657    0.6256   -6.4073      0      0      0
   367      3  1   -6.9787    0.0293   -6.6846      0      0      0
   368      3  1   -7.8740    0.2969   -6.9450      0      0      0
   369      3  1   -8.1391   -0.5768   -7.2726      0      0      0
   370      3  1   -7.5298   -1.2099   -6.8616      0      0      0
   371      3  1   -7.4459   -2.0643   -7.3132      0      0      0
   372      3  1   -8.0678   -1.5879   -7.8852      0      0      0
   373      3  1   -7.4312   -2.3145   -7.9729      0      0      0
   374      3  1   -7.6102   -1.5113    8.2712      0      0     -1
   375      3  1    8.2675   -1.7597    7.9474     -1      0     -1
   376      3  1    8.3486   -2.2667    7.1244     -1      0     -1
   377      3  1   -7.9324   -1.4478    6.9170      0      0     -1
   378      3  1   -7.2921   -1.1329    6.2599      0      0     -1
   379      3  1   -7.8373   -1.6641    5.6587      0      0     -1
   380      3  1   -7.2715   -0.9019    5.8584      0      0     -1
   381      3  1   -7.1997   -0.9711    4.8935      0      0     -1
   382      3  1   -8.0900   -0.5894    4.8429      0      0     -1
   383      3  1    8.2520   -1.1861    5.4848     -1      0     -1
   384      3  1   -7.9114   -0.5372    5.8930      0      0     -1
   385      3  1    8.1268   -0.9484    6.3972     -1      0     -1
   386      3  1    8.3423   -0.2951    5.7134     -1      0     -1
   387      3  1   -7.8540   -0.1496    6.4910      0      0     -1
   388      3  1    8.1207   -0.0019    7.0443     -1      0     -1
   389      3  1   -8.0114   -0.6642    6.7112      0      0     -1
   390      3  1    8.0686   -0.4846    6.0408     -1      0     -1
   391      3  1   -8.2173    0.1983    6.5428      0      0     -1
   392      3  1   -7.8803    1.0954    6.6929      0      0     -1
   393      3  1   -7.1183    0.5930    7.0213      0      0     -1
   394      3  1   -7.6787    0.6358    7.8119      0      0     -1
   395      3  1   -6.8248    0.2399    7.5773      0      0     -1
   396      3  1   -6.7820   -0.3884    6.8395      0      0     -1
   397      3  1   -6.0923   -0.0338    6.2569      0      0     -1
   398      3  1   -6.3575    0.2080    7.1581      0      0     -1
   399      3  1   -6.4353   -0.6631    6.7386      0      0     -1
   400      3  1   -6.5062    0.2156    7.1433      0      0     -1
   401      3  1   -6.3842   -0.7017    7.4343      0      0     -1
   402      3  1   -5.8177   -0.4543    8.1818      0      0     -1
   403      3  1   -5.1369   -0.7681   -7.9603      0      0      0
   404      3  1   -4.4992   -0.4217   -7.3167      0      0      0
   405      3  1   -3.8365    0.2305   -7.0402      0      0      0
   406      3  1   -4.7881    0.1290   -7.1990      0      0      0
   407      3  1   -5.4764   -0.5285   -7.0126      0      0      0
   408      3  1   -4.8468   -1.1065   -7.4715      0      0      0
   409      3  1   -4.3941   -0.2577   -7.3467      0      0      0
   410      3  1   -3.5746   -0.7525   -7.1900      0      0      0
   411      3  1   -4.2061   -0.2176   -7.6959      0      0      0
   412      3  1   -3.7394    0.6231   -7.8239      0      0      0
   413      3  1   -3.0563    1.2621   -7.5672      0      0      0
   414      3  1   -2.3686    0.7333   -7.1332      0      0      0
   415      3  1   -3.0263    1.0288   -6.4843      0      0      0
   416      3  1   -2.3593    0.3997   -6.8009      0      0      0
   417      3  1   -3.0401    0.9162   -6.3418      0      0      0
   418      3  1   -2.9120    0.1343   -6.9014      0      0      0
   419      3  1   -3.6801    0.3909   -6.3674      0      0      0
   420      3  1   -4.3519    0.9704   -6.7595      0      0      0
   421      3  1   -4.5572    1.8423   -6.3873      0      0      0
   422      3  1   -4.8370    1.2137   -7.0710      0      0      0
   423      3  1   -5.0644    0.2715   -7.1106      0      0      0
   424      3  1   -5.4052   -0.1906   -6.3288      0      0      0
   425      3  1   -5.8826    0.4070   -6.9253      0      0      0
   426      3  1   -4.9738    0.5995   -7.2044      0      0      0
   427      3  1   -4.2566    0.1104   -7.6373      0      0      0
   428      3  1   -4.6740   -0.5186   -7.0281      0      0      0
   429      3  1   -4.1978   -1.1502   -6.4667      0      0      0
   430      3  1   -3.6885   -1.0864   -7.2897      0      0      0
   431      3  1   -4.5488   -1.3522   -6.9290      0      0      0
   432      3  1   -4.9850   -1.0130   -6.1318      0      0      0
   433      3  1   -5.4298   -1.6256   -5.5253      0      0      0
   434      3  1   -5.3773   -0.7060   -5.8295      0      0      0
   435      3  1   -5.1690   -0.4388   -6.7384      0      0      0
   436      3  1   -5.2081   -1.3220   -6.3391      0      0      0