LAMMPS (7 Aug 2013)
# Bead-spring polymer simulation with small-molecule diffusion - lj
# 160-mers
# 25 chains
# FENE potential repulsive all sites, with interactive temperature

units lj

shell	       echo 1.0 > Tempfile.txt

variable       myTempStr file Tempfile.txt
variable       myTemp equal v_myTempStr

neighbor	0.4 bin
neigh_modify	every 1 delay 5 check yes

atom_style 	molecular

# soft potential for initial pushoff
pair_style	lj/cut 1.12246
pair_modify	shift yes
bond_style	fene

# filename of the data-file (or restart-file) to be used
#read_data	newdataNbead1.txt
read_restart	restartequil1
WARNING: Restart file version does not match LAMMPS version (../read_restart.cpp:470)
  orthogonal box = (-8.37884 -8.37884 -8.37884) to (8.37884 8.37884 8.37884)
  1 by 1 by 1 MPI processor grid
  4000 atoms
  3975 bonds
  2 = max # of 1-2 neighbors
  2 = max # of 1-3 neighbors
  4 = max # of 1-4 neighbors
  6 = max # of special neighbors

# pair coefficients
pair_coeff	* * 1.0 1.0
#pair_coeff	* * 10.0

bond_coeff	1 30.0 1.5 1.0 1.0

#special_bonds	lj 0.0 1.0 1.0

# set the timestep in the specified units
timestep	0.002

thermo_style	one

# set the parameters here
fix 1 all nve
#fix 2 all temp/rescale 1 0.0 1.0 0.05 1.0
fix 3 all langevin v_myTemp 1.0 1.0 39253

# set Interactive Molecular Dynamics

fix comm all imd 5680 trate 5 unwrap on #fscale #10.0

reset_timestep 	0

# change the 8000 to change how often to save the positions of the atoms
#dump 		1 all custom 500 position_imd.lammpstrj id type xs ys zs ix iy iz

# how often to output thermodynamic data
thermo		100

# how often to outout restart files and their names
#restart       5000000 restartimd1 restartimd2

label          loop2here

# specifies the run length in timesteps
run            2000
WARNING: Use special bonds = 0,1,1 with bond style fene (../bond_fene.cpp:187)
Memory usage per processor = 6.26258 Mbytes
Step Temp E_pair E_mol TotEng Press 
       0    1.0012256   0.18910873    20.606675    22.297247   0.41307465 
     100   0.99431132   0.19238355    20.601234    22.284712   0.13705867 
     200   0.99103424   0.19897655    20.599721    22.284877   0.38066205 
     300   0.99237797   0.19734262     20.60914    22.294678 -0.0064593348 
     400    1.0039672   0.19574158     20.60302    22.304336   0.38896725 
     500   0.99736653   0.19431201    20.591048    22.281036   0.19090222 
     600    1.0009318   0.19365284    20.576205     22.27088   0.54594773 
     700    1.0133617   0.19182297    20.574505    22.285991   0.25999299 
     800    1.0033164   0.19524228    20.593923    22.293764    0.4470079 
     900    1.0035619    0.1904077    20.583018    22.278392   0.46654046 
    1000   0.98431125   0.19163142    20.586848    22.254577   0.16723946 
    1100   0.98232719   0.19301228    20.597235     22.26337   0.25871846 
    1200   0.98517626   0.19225107    20.589133    22.258779   0.50047752 
    1300   0.98214777   0.19064459    20.605377    22.268875    0.1415751 
    1400    1.0003434   0.19378488     20.57755    22.271475   0.68650249 
    1500   0.99684508   0.19910325    20.588383     22.28238   0.19991711 
    1600   0.98624762   0.20595559    20.588265    22.273223   0.47457476 
    1700   0.99739166   0.20518543     20.57716    22.278059  0.076738543 
    1800    1.0070565    0.1962395    20.593273     22.29972   0.28982328 
    1900    1.0009047   0.20024607    20.594926    22.296154   0.29636941 
    2000     1.001409   0.19523599     20.58995    22.286924   0.42650716 
Loop time of 2.58748 on 1 procs for 2000 steps with 4000 atoms

Pair  time (%) = 0.850902 (32.8853)
Bond  time (%) = 0.325642 (12.5853)
Neigh time (%) = 0.315119 (12.1786)
Comm  time (%) = 0.0662918 (2.56202)
Outpt time (%) = 0.000868082 (0.0335493)
Other time (%) = 1.02866 (39.7553)

Nlocal:    4000 ave 4000 max 4000 min
Histogram: 1 0 0 0 0 0 0 0 0 0
Nghost:    2258 ave 2258 max 2258 min
Histogram: 1 0 0 0 0 0 0 0 0 0
Neighs:    12190 ave 12190 max 12190 min
Histogram: 1 0 0 0 0 0 0 0 0 0

Total # of neighbors = 12190
Ave neighs/atom = 3.0475
Ave special neighs/atom = 5.925
Neighbor list builds = 83
Dangerous builds = 0
shell          head -n 2 Temp.txt | tail -n 1 >> Tempfile.txt
next           myTempStr
jump           imdinput.txt loop2here

# specifies the run length in timesteps
run            2000
WARNING: Use special bonds = 0,1,1 with bond style fene (../bond_fene.cpp:187)
Memory usage per processor = 6.2754 Mbytes
Step Temp E_pair E_mol TotEng Press 
    2000     1.001409   0.19523599     20.58995    22.286924   0.42650716 
    2100   0.94630853   0.18847587     20.57922    22.186804   0.34412552 
    2200   0.92056782   0.17899034    20.550357    22.109854    0.2599748 
    2300   0.88054343   0.17568546    20.537336    22.033507   0.23493896 
    2400   0.86447433   0.17153306    20.524377    21.992298   0.34584704 
    2500   0.85725903   0.17135522    20.500232    21.957154   0.49516692 
    2600   0.85372218   0.16475421    20.505933    21.950951   0.26536274 
    2700   0.83590858   0.16084559     20.50377    21.918165   0.11742941 
    2800   0.82717001   0.15750744    20.505509    21.903461   0.30463331 
    2900   0.82329525   0.16545525    20.500114    21.900203  0.063845433 
    3000   0.82726435   0.17199154    20.488382     21.90096   0.29698339 
    3100    0.8214589    0.1750465    20.486767    21.893694  0.061712273 
    3200   0.81761589   0.17786593    20.503639    21.907622   0.28171319 
    3300   0.82381648   0.17272166    20.491538    21.899676   0.23491956 
    3400    0.8183255   0.16688289    20.511955     21.90602   0.46094031 
    3500   0.82844583   0.16499891    20.484597    21.891954   0.51068202 
    3600   0.81274841   0.16513956    20.494255    21.878213    0.3237555 
    3700   0.80686975   0.16203764    20.508402    21.880441    0.2019658 
    3800   0.80214407   0.16120001    20.496352    21.860468   0.42176173 
    3900    0.8060584   0.15738178    20.500585    21.866752   0.46901757 
    4000   0.79985583   0.15773363    20.503459    21.860676   0.39479207 
Loop time of 2.58212 on 1 procs for 2000 steps with 4000 atoms

Pair  time (%) = 0.824933 (31.9479)
Bond  time (%) = 0.332977 (12.8955)
Neigh time (%) = 0.285867 (11.071)
Comm  time (%) = 0.0682373 (2.64269)
Outpt time (%) = 0.000766993 (0.029704)
Other time (%) = 1.06934 (41.4132)

Nlocal:    4000 ave 4000 max 4000 min
Histogram: 1 0 0 0 0 0 0 0 0 0
Nghost:    2375 ave 2375 max 2375 min
Histogram: 1 0 0 0 0 0 0 0 0 0
Neighs:    11950 ave 11950 max 11950 min
Histogram: 1 0 0 0 0 0 0 0 0 0

Total # of neighbors = 11950
Ave neighs/atom = 2.9875
Ave special neighs/atom = 5.925
Neighbor list builds = 75
Dangerous builds = 0
shell          head -n 2 Temp.txt | tail -n 1 >> Tempfile.txt
next           myTempStr
jump           imdinput.txt loop2here

# specifies the run length in timesteps
run            2000
WARNING: Use special bonds = 0,1,1 with bond style fene (../bond_fene.cpp:187)
Memory usage per processor = 6.2754 Mbytes
Step Temp E_pair E_mol TotEng Press 
    4000   0.79985583   0.15773363    20.503459    21.860676   0.39479207 
    4100   0.79780697   0.15796877     20.51614     21.87052   0.27272592 
    4200   0.80037277   0.15711842    20.498172    21.855549   0.48029633 
    4300   0.80156469   0.15585928    20.489442    21.847348   0.33763778 
    4400   0.80578234   0.15406823    20.497851     21.86029   0.48772459 
    4500   0.81061779   0.15784009    20.500447     21.87391    0.2091309 
    4600   0.80741501   0.15799647    20.496077    21.864894   0.34948578 
    4700   0.79857765   0.15492679    20.497032    21.849526    0.1584815 
    4800   0.79749879   0.16091615    20.496524    21.853389   0.31490586 
    4900   0.78632179   0.16403506    20.500942    21.844165   0.40495194 
    5000   0.79648343   0.16494757    20.495588    21.854963   0.26768238 
    5100   0.79928825   0.16111603    20.480177    21.839926   0.26600917 
    5200   0.79534645   0.16169815    20.479454    21.833874   0.30015679 
    5300   0.78533691   0.16622848    20.476919    21.820858   0.35961325 
    5400   0.79680578    0.1706176    20.473729    21.839257   0.40604998 
    5500   0.80035701   0.17106432    20.478917    21.850217   0.34925992 
    5600   0.80513935   0.16468041    20.471856    21.843943   0.31727588 
    5700   0.80243231   0.16039064    20.494338    21.858076   0.36736315 
    5800   0.80383598   0.15791327    20.482174     21.84554   0.45600419 
    5900   0.79862777   0.15874332    20.481262    21.837647    0.4273327 
    6000   0.79191607   0.16147171    20.474214    21.823263    0.2749179 
Loop time of 2.5309 on 1 procs for 2000 steps with 4000 atoms

Pair  time (%) = 0.808576 (31.9482)
Bond  time (%) = 0.330667 (13.0652)
Neigh time (%) = 0.276893 (10.9405)
Comm  time (%) = 0.0705087 (2.78592)
Outpt time (%) = 0.000873089 (0.0344972)
Other time (%) = 1.04338 (41.2257)

Nlocal:    4000 ave 4000 max 4000 min
Histogram: 1 0 0 0 0 0 0 0 0 0
Nghost:    2453 ave 2453 max 2453 min
Histogram: 1 0 0 0 0 0 0 0 0 0
Neighs:    12106 ave 12106 max 12106 min
Histogram: 1 0 0 0 0 0 0 0 0 0

Total # of neighbors = 12106
Ave neighs/atom = 3.0265
Ave special neighs/atom = 5.925
Neighbor list builds = 73
Dangerous builds = 0
shell          head -n 2 Temp.txt | tail -n 1 >> Tempfile.txt
next           myTempStr
jump           imdinput.txt loop2here

# specifies the run length in timesteps
run            2000
WARNING: Use special bonds = 0,1,1 with bond style fene (../bond_fene.cpp:187)
Memory usage per processor = 6.2754 Mbytes
Step Temp E_pair E_mol TotEng Press 
    6000   0.79191607   0.16147171    20.474214    21.823263    0.2749179 
    6100   0.79191134   0.15789068    20.481133    21.826594   0.33415658 
    6200   0.79547464   0.16285398    20.483279    21.839046   0.19962618 
    6300   0.79120429   0.16708978    20.468584    21.822184   0.55184215 
    6400   0.78653807   0.16573377    20.483824     21.82907    0.2045808 
    6500    0.7903615   0.16651461     20.49104    21.842801   0.33784966 
    6600   0.78527812   0.16058375    20.479348    21.817555   0.43373133 
    6700   0.79482495   0.15608059    20.483448    21.831468   0.38717926 
    6800   0.79956743   0.15738955    20.483985    21.840426   0.11839315 
    6900   0.79772661   0.15929055    20.490677    21.846259   0.28047925 
    7000     0.800849   0.15666767     20.49729    21.854931   0.67275668 
    7100   0.80806082   0.16563495     20.49109    21.868513   0.27289327 
    7200   0.81876635   0.16428987    20.483512    21.875644   0.17229341 
    7300   0.81626565     0.167069    20.479966    21.871127   0.26419814 
    7400   0.80327708   0.16974764    20.491847    21.866209   0.50707433 
    7500   0.80143119   0.16675933    20.496003    21.864609    0.3604958 
    7600   0.79839769   0.16118496     20.49086    21.849342   0.48615581 
    7700   0.80583899    0.1561575     20.49033    21.854944    0.3486576 
    7800   0.79426283   0.15822283    20.474573    21.823892   0.54587093 
    7900   0.78382581   0.15582875    20.494221    21.825494   0.24959167 
    8000   0.79893853   0.15869047    20.486639    21.843438   0.29098921 
Loop time of 2.53344 on 1 procs for 2000 steps with 4000 atoms

Pair  time (%) = 0.819757 (32.3574)
Bond  time (%) = 0.328816 (12.979)
Neigh time (%) = 0.281167 (11.0982)
Comm  time (%) = 0.0690923 (2.72721)
Outpt time (%) = 0.000751972 (0.0296818)
Other time (%) = 1.03386 (40.8085)

Nlocal:    4000 ave 4000 max 4000 min
Histogram: 1 0 0 0 0 0 0 0 0 0
Nghost:    2394 ave 2394 max 2394 min
Histogram: 1 0 0 0 0 0 0 0 0 0
Neighs:    12024 ave 12024 max 12024 min
Histogram: 1 0 0 0 0 0 0 0 0 0

Total # of neighbors = 12024
Ave neighs/atom = 3.006
Ave special neighs/atom = 5.925
Neighbor list builds = 74
Dangerous builds = 0
shell          head -n 2 Temp.txt | tail -n 1 >> Tempfile.txt
next           myTempStr
jump           imdinput.txt loop2here

# specifies the run length in timesteps
run            2000
WARNING: Use special bonds = 0,1,1 with bond style fene (../bond_fene.cpp:187)
Memory usage per processor = 6.2754 Mbytes
Step Temp E_pair E_mol TotEng Press 
    8000   0.79893853   0.15869047    20.486639    21.843438   0.29098921 
    8100   0.79617532   0.16039759     20.49207    21.846432   0.43046673 
    8200   0.81080191   0.15576527    20.501768    21.873432   0.44874814 
    8300   0.81301545   0.15862184    20.503874    21.881714   0.32867163 
    8400   0.80562206    0.1649424    20.495083    21.868157   0.20581299 
    8500   0.81537517   0.15901543    20.494568     21.87634   0.29767141 
    8600   0.80923454   0.16451463    20.486472    21.864535    0.3840762 
    8700   0.80626101   0.16426242    20.496727    21.870078  0.069632272 
    8800   0.79662288    0.1623824    20.490237    21.847254   0.26244039 
    8900   0.78999481   0.16377699    20.486965    21.835438   0.29418886 
    9000   0.79933165   0.16171274    20.493309    21.853719   0.39872833 
    9100    0.7859685   0.15922997      20.5005    21.838388   0.22417388 
    9200   0.80982842   0.15883784    20.480477    21.853754   0.42886996 
    9300   0.80766769   0.15732338    20.489251    21.857773   0.32782637 
    9400   0.79915354   0.15705504    20.497209    21.852694   0.34933526 
    9500   0.78637826   0.15768346    20.488248    21.825204   0.23324737 
    9600   0.79754392   0.15625189    20.486756    21.839024   0.19084178 
    9700   0.79092245   0.15609421    20.481811    21.823992   0.35239001 
    9800   0.79412325   0.15230738    20.465329    21.808523   0.26326626 
    9900   0.80151513   0.14743447     20.45664    21.806047   0.43751021 
   10000   0.78747773   0.14836397    20.475006    21.804291    0.1988007 
Loop time of 2.5489 on 1 procs for 2000 steps with 4000 atoms

Pair  time (%) = 0.809722 (31.7675)
Bond  time (%) = 0.330363 (12.961)
Neigh time (%) = 0.27611 (10.8325)
Comm  time (%) = 0.0682254 (2.67666)
Outpt time (%) = 0.000764608 (0.0299976)
Other time (%) = 1.06372 (41.7323)

Nlocal:    4000 ave 4000 max 4000 min
Histogram: 1 0 0 0 0 0 0 0 0 0
Nghost:    2375 ave 2375 max 2375 min
Histogram: 1 0 0 0 0 0 0 0 0 0
Neighs:    11905 ave 11905 max 11905 min
Histogram: 1 0 0 0 0 0 0 0 0 0

Total # of neighbors = 11905
Ave neighs/atom = 2.97625
Ave special neighs/atom = 5.925
Neighbor list builds = 73
Dangerous builds = 0
shell          head -n 2 Temp.txt | tail -n 1 >> Tempfile.txt
next           myTempStr
jump           imdinput.txt loop2here

# specifies the run length in timesteps
run            2000
WARNING: Use special bonds = 0,1,1 with bond style fene (../bond_fene.cpp:187)
Memory usage per processor = 6.2754 Mbytes
Step Temp E_pair E_mol TotEng Press 
   10000   0.78747773   0.14836397    20.475006    21.804291    0.1988007 
   10100   0.79140778   0.14959752    20.480899    21.817311   0.35472102 
   10200   0.80941076   0.15045486      20.4756    21.839868   0.38771667 
   10300   0.80737646    0.1519073    20.481341     21.84401   0.21692491 
   10400   0.81801947   0.15145228    20.464191    21.842366   0.33979745 
   10500   0.80419639   0.15566453    20.479859    21.841516   0.30491201 
   10600   0.80123084   0.16326329    20.479689    21.844498   0.36339407 
   10700   0.79312284   0.16356744    20.492115    21.845069   0.42568189 
   10800    0.8001173   0.16024639     20.48045    21.840573    0.2188088 
   10900   0.81770991   0.15395697    20.473301    21.853516   0.32525111 
   11000   0.81016162   0.15876956    20.474319    21.848027   0.35712864 
   11100   0.79209443   0.16201892    20.490695    21.840558   0.25523846 
   11200   0.79809602   0.15593811    20.486678    21.839461   0.24765072 
   11300   0.80812109   0.15612518    20.486301    21.854305   0.15717456 
   11400   0.81512081   0.15168397    20.484854    21.858913   0.56068336 
   11500   0.79947064   0.14789469    20.482537    21.829338  0.090041769 
   11600   0.80620796   0.15172372    20.486833    21.847566   0.43022142 
   11700   0.80327454   0.15190464    20.476969    21.833484   0.40964855 
   11800   0.80742984   0.15699405    20.470198    21.838034   0.38067009 
   11900   0.81412602   0.16133119    20.469525     21.85174   0.30073823 
   12000   0.79648212   0.16436732    20.477606    21.836397   0.41471071 
Loop time of 2.52348 on 1 procs for 2000 steps with 4000 atoms

Pair  time (%) = 0.805982 (31.9394)
Bond  time (%) = 0.33145 (13.1347)
Neigh time (%) = 0.281237 (11.1448)
Comm  time (%) = 0.0693691 (2.74895)
Outpt time (%) = 0.000773907 (0.0306683)
Other time (%) = 1.03466 (41.0015)

Nlocal:    4000 ave 4000 max 4000 min
Histogram: 1 0 0 0 0 0 0 0 0 0
Nghost:    2439 ave 2439 max 2439 min
Histogram: 1 0 0 0 0 0 0 0 0 0
Neighs:    12051 ave 12051 max 12051 min
Histogram: 1 0 0 0 0 0 0 0 0 0

Total # of neighbors = 12051
Ave neighs/atom = 3.01275
Ave special neighs/atom = 5.925
Neighbor list builds = 74
Dangerous builds = 0
shell          head -n 2 Temp.txt | tail -n 1 >> Tempfile.txt
next           myTempStr
jump           imdinput.txt loop2here

# specifies the run length in timesteps
run            2000
WARNING: Use special bonds = 0,1,1 with bond style fene (../bond_fene.cpp:187)
Memory usage per processor = 6.2754 Mbytes
Step Temp E_pair E_mol TotEng Press 
   12000   0.79648212   0.16436732    20.477606    21.836397   0.41471071 
   12100   0.80331811   0.16216907    20.474905     21.84175   0.37933427 
   12200    0.8124277   0.15728054    20.474106    21.849724   0.21878808 
   12300   0.78982216   0.15712722    20.489191    21.830756   0.32307685 
   12400   0.80478884   0.15601482    20.480668    21.843564   0.25249169 
   12500   0.79559667   0.15275403    20.477444    21.823294   0.33863293 
   12600   0.80545814    0.1578758    20.475509     21.84127   0.30433884 
   12700    0.7933259   0.15845967    20.490986    21.839137   0.29124248 
   12800   0.79355284   0.16171991    20.479373    21.831125   0.18108861 
   12900   0.79959288   0.16107456    20.473888    21.834052   0.41323451 
   13000   0.80951947   0.15956193     20.47356    21.847098   0.12048749 
   13100    0.7985977   0.15456453    20.486746    21.838907   0.45458486 
   13200   0.80939199   0.15773054      20.4851    21.856615   0.24907558 
   13300   0.81519669   0.15879226    20.465405    21.846686   0.47105759 
   13400   0.80643651   0.15358416    20.472106    21.835042   0.42046934 
   13500   0.80160716   0.15400086    20.488575    21.844686   0.14877995 
   13600   0.79258964   0.15224686    20.484366      21.8252   0.49227397 
   13700   0.80085567   0.15370258    20.465596    21.820282   0.27487542 
   13800   0.78979774    0.1594617    20.478137    21.821999   0.27676498 
   13900    0.7930262   0.16365696    20.484425    21.837324   0.19837163 
   14000    0.7885294   0.16103519    20.497873    21.841407   0.21940373 
Loop time of 2.51584 on 1 procs for 2000 steps with 4000 atoms

Pair  time (%) = 0.805217 (32.0059)
Bond  time (%) = 0.32962 (13.1018)
Neigh time (%) = 0.276911 (11.0067)
Comm  time (%) = 0.06879 (2.73427)
Outpt time (%) = 0.000827551 (0.0328936)
Other time (%) = 1.03447 (41.1184)

Nlocal:    4000 ave 4000 max 4000 min
Histogram: 1 0 0 0 0 0 0 0 0 0
Nghost:    2406 ave 2406 max 2406 min
Histogram: 1 0 0 0 0 0 0 0 0 0
Neighs:    11961 ave 11961 max 11961 min
Histogram: 1 0 0 0 0 0 0 0 0 0

Total # of neighbors = 11961
Ave neighs/atom = 2.99025
Ave special neighs/atom = 5.925
Neighbor list builds = 73
Dangerous builds = 0
shell          head -n 2 Temp.txt | tail -n 1 >> Tempfile.txt
next           myTempStr
jump           imdinput.txt loop2here

# specifies the run length in timesteps
run            2000
WARNING: Use special bonds = 0,1,1 with bond style fene (../bond_fene.cpp:187)
Memory usage per processor = 6.2754 Mbytes
Step Temp E_pair E_mol TotEng Press 
   14000    0.7885294   0.16103519    20.497873    21.841407   0.21940373 
   14100   0.80484973   0.15838519    20.501542      21.8669   0.34961928 
   14200   0.82097159   0.15674021    20.473404    21.861294    0.1344393 
   14300   0.83475629   0.15774924    20.482758    21.892329   0.27038159 
   14400   0.81826587   0.15417968    20.485396    21.866668   0.52970997 
   14500   0.79867795   0.15984776    20.495534      21.8531    0.2032046 
   14600   0.79679111   0.15864797    20.489909    21.843445    0.4326827 
   14700    0.8090047   0.15817999    20.486219    21.857603   0.36960433 
   14800   0.79489511   0.15561453    20.486734    21.834393   0.24158484 
   14900   0.79412069   0.15164025    20.482111    21.824634   0.28241912 
   15000   0.78533129   0.14868529    20.483574    21.809961   0.33705643 
   15100   0.78034934   0.14786226    20.487827    21.805921   0.18632084 
   15200   0.79682623   0.14779037    20.490703    21.833434   0.27919682 
   15300   0.78664006   0.15205508    20.469579    21.801299   0.19748279 
   15400   0.77951945   0.15568462     20.48527    21.809941   0.49304859 
   15500   0.79329514   0.15307725    20.478435    21.821158   0.14057564 
   15600   0.79865611     0.155192    20.482575    21.835451   0.19978434 
   15700     0.785911   0.16132561    20.489421    21.829319   0.19501831 
   15800   0.78895507   0.16389482     20.48713    21.834162   0.20303575 
   15900   0.78780155   0.16030601    20.481901    21.823614   0.30545927 
   16000   0.78931922    0.1564735    20.477784    21.817941    0.1594985 
Loop time of 2.51448 on 1 procs for 2000 steps with 4000 atoms

Pair  time (%) = 0.799237 (31.7854)
Bond  time (%) = 0.328238 (13.0539)
Neigh time (%) = 0.282585 (11.2383)
Comm  time (%) = 0.0685115 (2.72468)
Outpt time (%) = 0.000864983 (0.0344001)
Other time (%) = 1.03504 (41.1633)

Nlocal:    4000 ave 4000 max 4000 min
Histogram: 1 0 0 0 0 0 0 0 0 0
Nghost:    2348 ave 2348 max 2348 min
Histogram: 1 0 0 0 0 0 0 0 0 0
Neighs:    11958 ave 11958 max 11958 min
Histogram: 1 0 0 0 0 0 0 0 0 0

Total # of neighbors = 11958
Ave neighs/atom = 2.9895
Ave special neighs/atom = 5.925
Neighbor list builds = 75
Dangerous builds = 0
shell          head -n 2 Temp.txt | tail -n 1 >> Tempfile.txt
next           myTempStr
jump           imdinput.txt loop2here

# specifies the run length in timesteps
run            2000
WARNING: Use special bonds = 0,1,1 with bond style fene (../bond_fene.cpp:187)
Memory usage per processor = 6.2754 Mbytes
Step Temp E_pair E_mol TotEng Press 
   16000   0.78931922    0.1564735    20.477784    21.817941    0.1594985 
   16100   0.78809701      0.16286    20.476033    21.820743   0.15287243 
   16200   0.79020398   0.15959732    20.477884    21.822491   0.36150755 
   16300   0.79084603   0.15078216    20.492699    21.829454   0.23427117 
   16400   0.79951624   0.15289743    20.492953    21.844825   0.39403764 
   16500   0.79469919   0.15526585    20.486327    21.833344   0.50901376 
   16600   0.78938303   0.15225304    20.501581    21.837613   0.19686383 
   16700   0.81691434   0.15126592    20.471911    21.848242   0.45488696 
   16800   0.79904482   0.15320543    20.484941    21.836414   0.27665219 
   16900   0.79548123   0.15322807    20.481333    21.827485   0.25673293 
   17000   0.80023297   0.15583821    20.476749    21.832637   0.35591839 
   17100    0.7873974   0.15715929    20.478909    21.816869   0.35551584 
   17200   0.79664573   0.15421576     20.48164    21.830526   0.47993456 
   17300   0.80339485   0.15209653    20.487003     21.84389   0.34609444 
   17400   0.80615457   0.15301646    20.476994     21.83894   0.23974819 
   17500   0.81367292   0.15255292    20.479555    21.852312   0.29887526 
   17600   0.79995267   0.15484453    20.487075    21.841548   0.35864148 
   17700   0.79048702   0.15734366    20.485065    21.827843   0.42367843 
   17800   0.78567807    0.1632991    20.480553    21.822074    0.2082237 
   17900   0.80121463   0.15960525    20.479758    21.840884   0.45745253 
   18000   0.79340604   0.15530317    20.482871    21.827985   0.35788366 
Loop time of 2.52729 on 1 procs for 2000 steps with 4000 atoms

Pair  time (%) = 0.800228 (31.6635)
Bond  time (%) = 0.329892 (13.0532)
Neigh time (%) = 0.28442 (11.254)
Comm  time (%) = 0.0699837 (2.76912)
Outpt time (%) = 0.000859022 (0.0339899)
Other time (%) = 1.0419 (41.2262)

Nlocal:    4000 ave 4000 max 4000 min
Histogram: 1 0 0 0 0 0 0 0 0 0
Nghost:    2455 ave 2455 max 2455 min
Histogram: 1 0 0 0 0 0 0 0 0 0
Neighs:    11833 ave 11833 max 11833 min
Histogram: 1 0 0 0 0 0 0 0 0 0

Total # of neighbors = 11833
Ave neighs/atom = 2.95825
Ave special neighs/atom = 5.925
Neighbor list builds = 75
Dangerous builds = 0
shell          head -n 2 Temp.txt | tail -n 1 >> Tempfile.txt
next           myTempStr
jump           imdinput.txt loop2here

# specifies the run length in timesteps
run            2000
WARNING: Use special bonds = 0,1,1 with bond style fene (../bond_fene.cpp:187)
Memory usage per processor = 6.2754 Mbytes
Step Temp E_pair E_mol TotEng Press 
   18000   0.79340604   0.15530317    20.482871    21.827985   0.35788366 
   18100   0.80384777   0.15263433    20.468527    21.826631   0.28750752 
   18200   0.80468437   0.15035664    20.487368     21.84445   0.25050326 
   18300   0.80470311     0.148848    20.486113    21.841714   0.61604992 
   18400   0.80326352   0.15062142    20.495597    21.850813   0.29815394 
   18500   0.79664151   0.15332553    20.486836    21.834825   0.48974372 
   18600   0.80074945   0.14904303    20.480795    21.830662   0.15695882 
   18700   0.79632449   0.15320001     20.47876    21.826148   0.14559103 
   18800   0.79905427   0.15216463    20.486951    21.837398   0.20030876 
   18900    0.7831791   0.15478688    20.487876    21.817138   0.44160053 
   19000   0.78461528   0.15853897    20.480463     21.81563   0.29268782 
   19100    0.7946855   0.15202257    20.488677    21.832429   0.31367146 
   19200   0.80341816   0.15412967    20.491714     21.85067   0.17652408 
   19300   0.81426951   0.15189968    20.491974    21.864973   0.51009629 
   19400   0.79975676   0.15741377    20.491042    21.847791   0.11897227 
   19500   0.79551279   0.15775719    20.494306    21.845034   0.40578373 
   19600   0.79650766   0.15290463    20.480264    21.827631   0.36622386 
   19700   0.79936338   0.15310828    20.478582    21.830435   0.51458798 
   19800   0.79752885   0.15690594    20.482955    21.835855    0.3686675 
   19900   0.79969834    0.1515314    20.484153    21.834932   0.25334756 
   20000   0.79965115   0.15296789    20.478268    21.830413   0.20597582 
Loop time of 2.5402 on 1 procs for 2000 steps with 4000 atoms

Pair  time (%) = 0.793605 (31.2418)
Bond  time (%) = 0.330744 (13.0204)
Neigh time (%) = 0.276571 (10.8877)
Comm  time (%) = 0.0709951 (2.79486)
Outpt time (%) = 0.000889063 (0.0349997)
Other time (%) = 1.0674 (42.0202)

Nlocal:    4000 ave 4000 max 4000 min
Histogram: 1 0 0 0 0 0 0 0 0 0
Nghost:    2428 ave 2428 max 2428 min
Histogram: 1 0 0 0 0 0 0 0 0 0
Neighs:    11840 ave 11840 max 11840 min
Histogram: 1 0 0 0 0 0 0 0 0 0

Total # of neighbors = 11840
Ave neighs/atom = 2.96
Ave special neighs/atom = 5.925
Neighbor list builds = 73
Dangerous builds = 0
shell          head -n 2 Temp.txt | tail -n 1 >> Tempfile.txt
next           myTempStr
jump           imdinput.txt loop2here

# specifies the run length in timesteps
run            2000
WARNING: Use special bonds = 0,1,1 with bond style fene (../bond_fene.cpp:187)
Memory usage per processor = 6.2754 Mbytes
Step Temp E_pair E_mol TotEng Press 
   20000   0.79965115   0.15296789    20.478268    21.830413   0.20597582 
   20100   0.77575124   0.15608753     20.49983    21.819254   0.28858037 
   20200   0.78082433   0.14798638    20.488701    21.807631   0.21959535 
   20300    0.7974298   0.14503116    20.479578    21.820455   0.18532164 
   20400   0.79844763   0.15154794    20.481928    21.830848   0.19069099 
   20500   0.79835852   0.14275456    20.492197     21.83219   0.37668841 
   20600   0.81296427   0.14434323    20.475561    21.839046   0.49781178 
   20700   0.79699554   0.14969792    20.485385    21.830277   0.40555361 
   20800   0.78462295   0.15420206    20.488541    21.819384   0.46662132 
   20900   0.79389569   0.15911694    20.484617     21.83428   0.35050669 
   21000    0.7957403   0.15916362    20.476364     21.82884   0.16082024 
   21100    0.7845473   0.15996832    20.476165     21.81266   0.30423632 
   21200   0.78065737   0.15874693    20.483545    21.812985   0.14883591 
   21300   0.78921327    0.1517909    20.471805     21.80712   0.18086984 
   21400   0.78787065   0.14928495      20.4812    21.811996   0.36823121 
   21500   0.79590061   0.15295666    20.484255    21.830764   0.19432922 
   21600   0.79508852   0.14916817    20.474605    21.816108   0.34303119 
   21700   0.79953354   0.15178731    20.482948    21.833736   0.31690238 
   21800   0.80058793   0.15111581    20.485601    21.837298   0.38104055 
   21900    0.7939792   0.14719773    20.490166    21.828035    0.5322078 
   22000   0.81100961   0.14080764    20.483576    21.840594   0.13904187 
Loop time of 2.49521 on 1 procs for 2000 steps with 4000 atoms

Pair  time (%) = 0.78661 (31.5248)
Bond  time (%) = 0.327622 (13.13)
Neigh time (%) = 0.278785 (11.1728)
Comm  time (%) = 0.0691783 (2.77245)
Outpt time (%) = 0.000831842 (0.0333376)
Other time (%) = 1.03218 (41.3666)

Nlocal:    4000 ave 4000 max 4000 min
Histogram: 1 0 0 0 0 0 0 0 0 0
Nghost:    2427 ave 2427 max 2427 min
Histogram: 1 0 0 0 0 0 0 0 0 0
Neighs:    11768 ave 11768 max 11768 min
Histogram: 1 0 0 0 0 0 0 0 0 0

Total # of neighbors = 11768
Ave neighs/atom = 2.942
Ave special neighs/atom = 5.925
Neighbor list builds = 74
Dangerous builds = 0
shell          head -n 2 Temp.txt | tail -n 1 >> Tempfile.txt
next           myTempStr
jump           imdinput.txt loop2here

# specifies the run length in timesteps
run            2000
WARNING: Use special bonds = 0,1,1 with bond style fene (../bond_fene.cpp:187)
Memory usage per processor = 6.2754 Mbytes
Step Temp E_pair E_mol TotEng Press 
   22000   0.81100961   0.14080764    20.483576    21.840594   0.13904187 
   22100   0.81391377   0.14414958    20.481454    21.846169   0.28573698 
   22200   0.80617426   0.15169651    20.478778    21.839434   0.43045248 
   22300   0.81637381   0.15589928    20.484586    21.864739   0.23187944 
   22400   0.80798972   0.15702134    20.490958    21.859661   0.26331083 
   22500   0.80303367   0.16085722    20.500642    21.865749   0.35419949 
   22600   0.80139164   0.15946037    20.496933     21.85818   0.43361567 
   22700   0.79931047   0.16257488     20.48228    21.843521   0.33867583 
   22800   0.79740026   0.16468537    20.478119    21.838606   0.57494486 
   22900   0.78712586   0.16349709    20.491935    21.835826   0.47163838 
   23000   0.79756396   0.16190655    20.488049    21.846002   0.26361233 
   23100   0.80181742   0.15881093    20.490807    21.852043   0.41569155 
   23200   0.79642674   0.16133066    20.493649    21.849321   0.44257539 
   23300    0.7993266   0.16129423    20.484596    21.844581   0.31579785 
   23400   0.80360281    0.1579128    20.481197    21.844213    0.3084161 
   23500   0.81172423   0.15905375    20.477835    21.854171   0.43981498 
   23600   0.79401699   0.15612288    20.490697    21.837547   0.42272085 
   23700   0.79506406   0.15394403    20.485875    21.832117   0.12099558 
   23800    0.7923981   0.15316617    20.478327    21.819793   0.59286321 
   23900   0.79159263   0.15680969    20.483478     21.82738   0.20669742 
   24000   0.79836624   0.15619525    20.482095     21.83554   0.24257828 
Loop time of 2.50473 on 1 procs for 2000 steps with 4000 atoms

Pair  time (%) = 0.795416 (31.7565)
Bond  time (%) = 0.328571 (13.118)
Neigh time (%) = 0.275747 (11.009)
Comm  time (%) = 0.0696557 (2.78096)
Outpt time (%) = 0.000847101 (0.03382)
Other time (%) = 1.0345 (41.3017)

Nlocal:    4000 ave 4000 max 4000 min
Histogram: 1 0 0 0 0 0 0 0 0 0
Nghost:    2490 ave 2490 max 2490 min
Histogram: 1 0 0 0 0 0 0 0 0 0
Neighs:    11785 ave 11785 max 11785 min
Histogram: 1 0 0 0 0 0 0 0 0 0

Total # of neighbors = 11785
Ave neighs/atom = 2.94625
Ave special neighs/atom = 5.925
Neighbor list builds = 73
Dangerous builds = 0
shell          head -n 2 Temp.txt | tail -n 1 >> Tempfile.txt
next           myTempStr
jump           imdinput.txt loop2here

# specifies the run length in timesteps
run            2000
WARNING: Use special bonds = 0,1,1 with bond style fene (../bond_fene.cpp:187)
Memory usage per processor = 6.2754 Mbytes
Step Temp E_pair E_mol TotEng Press 
   24000   0.79836624   0.15619525    20.482095     21.83554   0.24257828 
   24100   0.80408584   0.16065369    20.469919      21.8364   0.22106649 
   24200   0.79670999   0.16070396    20.471817    21.827287   0.25538666 
   24300   0.80240491   0.15503284    20.470796    21.829135   0.44141113 
   24400   0.78912515     0.156071    20.473661    21.813124   0.21736147 
   24500   0.80033799   0.15892775    20.462616    21.821751   0.26411602 
   24600   0.79581421   0.15639522    20.471586    21.821404   0.34917959 
   24700   0.77694198   0.16140816    20.496365    21.822894   0.18092401 
   24800   0.78438172   0.16120544     20.47418    21.811664   0.38560032 
   24900   0.77464875   0.15954944    20.491358    21.812591    0.2065465 
   25000    0.7875043   0.15975557    20.499881    21.840598  0.067752805 
   25100   0.79009324   0.15654723    20.494389     21.83578   0.43378445 
   25200   0.79604455   0.15521412      20.4946    21.843583   0.29143181 
   25300   0.80734812   0.15721531    20.484785    21.852719   0.22196617 
   25400   0.82036227   0.15397141    20.485656    21.869863   0.13329582 
   25500    0.8207666   0.15480715    20.480224    21.865874   0.57256133 
   25600   0.81160197   0.15610586    20.484863    21.858067   0.45266075 
   25700   0.80711099   0.15768568    20.495114    21.863164   0.30639687 
   25800   0.80743856   0.15512128     20.49487    21.860846    0.5103286 
   25900   0.81493415   0.16195973    20.483849    21.867904   0.38070094 
   26000   0.80341819   0.16439331    20.488976    21.858195   0.29299943 
Loop time of 2.50739 on 1 procs for 2000 steps with 4000 atoms

Pair  time (%) = 0.797886 (31.8214)
Bond  time (%) = 0.327369 (13.0562)
Neigh time (%) = 0.280432 (11.1842)
Comm  time (%) = 0.0700104 (2.79216)
Outpt time (%) = 0.000779152 (0.0310742)
Other time (%) = 1.03091 (41.1149)

Nlocal:    4000 ave 4000 max 4000 min
Histogram: 1 0 0 0 0 0 0 0 0 0
Nghost:    2416 ave 2416 max 2416 min
Histogram: 1 0 0 0 0 0 0 0 0 0
Neighs:    11787 ave 11787 max 11787 min
Histogram: 1 0 0 0 0 0 0 0 0 0

Total # of neighbors = 11787
Ave neighs/atom = 2.94675
Ave special neighs/atom = 5.925
Neighbor list builds = 74
Dangerous builds = 0
shell          head -n 2 Temp.txt | tail -n 1 >> Tempfile.txt
next           myTempStr
jump           imdinput.txt loop2here

# specifies the run length in timesteps
run            2000
WARNING: Use special bonds = 0,1,1 with bond style fene (../bond_fene.cpp:187)
Memory usage per processor = 6.2754 Mbytes
Step Temp E_pair E_mol TotEng Press 
   26000   0.80341819   0.16439331    20.488976    21.858195   0.29299943 
   26100   0.81788212   0.15982835    20.478404    21.864748   0.33901793 
   26200   0.80391773   0.15550721    20.484306    21.845388   0.34870648 
   26300    0.7989762   0.15414476    20.504258    21.856567   0.16856027 
   26400   0.81442166   0.15304057    20.486845    21.861212   0.46627641 
   26500   0.81986804   0.15691878    20.485856     21.87227   0.36015693 
   26600   0.81205447   0.16245541    20.486164    21.866396   0.31639483 
   26700   0.81383274   0.16866727     20.47883    21.867941   0.35188619 
   26800   0.80029811    0.1700824    20.482486    21.852715   0.30982618 
   26900   0.80171465    0.1727999    20.483427    21.858498   0.29391859 
   27000   0.80105875   0.16936829    20.479437    21.850094   0.39665908 
   27100   0.81212751   0.16725124    20.488127    21.873265   0.16880817 
   27200   0.81411896    0.1614448    20.483045    21.865363    0.2821389 
   27300   0.80418171   0.15733328    20.468561    21.831865   0.19178346 
   27400   0.80287531   0.16086412    20.480721    21.845597   0.32658532 
   27500   0.80011249   0.16304817     20.47188    21.834797    0.1958489 
   27600   0.80810147   0.15586366    20.473294    21.841007   0.44212302 
   27700   0.80244847   0.15215484    20.471737    21.827264    0.4869393 
   27800   0.79971612   0.15343974    20.479392    21.832106   0.40743393 
   27900   0.79507862   0.16136031    20.482663    21.836343   0.26169058 
   28000   0.80430266   0.16257747    20.477908    21.846638   0.22243428 
Loop time of 2.53811 on 1 procs for 2000 steps with 4000 atoms

Pair  time (%) = 0.810218 (31.9221)
Bond  time (%) = 0.329997 (13.0017)
Neigh time (%) = 0.289649 (11.412)
Comm  time (%) = 0.06988 (2.75323)
Outpt time (%) = 0.000887632 (0.0349722)
Other time (%) = 1.03748 (40.8761)

Nlocal:    4000 ave 4000 max 4000 min
Histogram: 1 0 0 0 0 0 0 0 0 0
Nghost:    2413 ave 2413 max 2413 min
Histogram: 1 0 0 0 0 0 0 0 0 0
Neighs:    11962 ave 11962 max 11962 min
Histogram: 1 0 0 0 0 0 0 0 0 0

Total # of neighbors = 11962
Ave neighs/atom = 2.9905
Ave special neighs/atom = 5.925
Neighbor list builds = 76
Dangerous builds = 0
shell          head -n 2 Temp.txt | tail -n 1 >> Tempfile.txt
next           myTempStr
jump           imdinput.txt loop2here

# specifies the run length in timesteps
run            2000
WARNING: Use special bonds = 0,1,1 with bond style fene (../bond_fene.cpp:187)
Memory usage per processor = 6.2754 Mbytes
Step Temp E_pair E_mol TotEng Press 
   28000   0.80430266   0.16257747    20.477908    21.846638   0.22243428 
   28100   0.80974048   0.15398783    20.474591    21.842886   0.22169353 
   28200   0.80363236   0.15879438     20.48841    21.852351    0.4680437 
   28300    0.7998969   0.16164116    20.489868    21.851054   0.31442372 
   28400   0.80602869   0.16160042    20.478157    21.848499   0.23718188 
   28500   0.79270538    0.1648708     20.47823    21.831861   0.25754448 
   28600   0.79277339   0.16290541    20.490898    21.842666   0.41499715 
   28700   0.79882514   0.16573672    20.489271    21.852946   0.32880972 
   28800   0.79747589   0.16200817    20.485175    21.843098   0.37273135 
   28900   0.80329928   0.15883104    20.499405    21.862884   0.47235267 
   29000   0.81172943   0.15844008    20.482754    21.858484   0.20500372 
   29100   0.79202493   0.15648953    20.496709    21.840939   0.40236954 
   29200   0.78871141   0.15887648    20.495566    21.837214   0.53656777 
   29300   0.79933977   0.15481053    20.494577    21.848097   0.33440414 
   29400   0.80569526   0.15672114    20.480904    21.845866    0.3572093 
   29500   0.79370294   0.15775029      20.4815    21.829507   0.21140439 
   29600   0.80158778   0.15871831    20.472285    21.833084    0.5706672 
   29700   0.78881198   0.15783767    20.490772    21.831532   0.20534177 
   29800   0.78687503   0.15641137    20.490841    21.827269   0.29337213 
   29900    0.7995673   0.15492197    20.472894    21.826867   0.37459677 
   30000   0.79102925   0.15069278    20.485252    21.822192    0.2082977 
Loop time of 2.504 on 1 procs for 2000 steps with 4000 atoms

Pair  time (%) = 0.800993 (31.9885)
Bond  time (%) = 0.32704 (13.0607)
Neigh time (%) = 0.27851 (11.1226)
Comm  time (%) = 0.0674756 (2.69471)
Outpt time (%) = 0.000799417 (0.0319256)
Other time (%) = 1.02919 (41.1016)

Nlocal:    4000 ave 4000 max 4000 min
Histogram: 1 0 0 0 0 0 0 0 0 0
Nghost:    2316 ave 2316 max 2316 min
Histogram: 1 0 0 0 0 0 0 0 0 0
Neighs:    11889 ave 11889 max 11889 min
Histogram: 1 0 0 0 0 0 0 0 0 0

Total # of neighbors = 11889
Ave neighs/atom = 2.97225
Ave special neighs/atom = 5.925
Neighbor list builds = 74
Dangerous builds = 0
shell          head -n 2 Temp.txt | tail -n 1 >> Tempfile.txt
next           myTempStr
jump           imdinput.txt loop2here

# specifies the run length in timesteps
run            2000
WARNING: Use special bonds = 0,1,1 with bond style fene (../bond_fene.cpp:187)
Memory usage per processor = 6.2754 Mbytes
Step Temp E_pair E_mol TotEng Press 
   30000   0.79102925   0.15069278    20.485252    21.822192    0.2082977 
   30100   0.78189796   0.15623029    20.490824    21.819608   0.13073611 
   30200   0.78429152    0.1574542    20.495546    21.829144   0.53177008 
   30300   0.79494239   0.15789217    20.484743     21.83475    0.5002047 
   30400   0.78632885   0.15865795    20.480608    21.818465   0.45457308 
   30500   0.79438692    0.1612384    20.479892    21.832413   0.39084596 
   30600   0.79331557   0.15637077     20.49577    21.841817   0.37338941 
   30700   0.80026073   0.15476259    20.490186    21.845039   0.18649467 
   30800   0.80090876   0.15361352    20.491674    21.846351   0.47396512 
   30900   0.80244771   0.15611282     20.47906    21.838544   0.34209883 
   31000   0.78545214   0.15698673    20.482245    21.817115   0.18864829 
   31100    0.7800202   0.15925525    20.471502    21.800495   0.34859055 
   31200   0.78624458   0.15425839    20.481641    21.814972   0.40784768 
   31300   0.79388641   0.15428307    20.479816    21.824631   0.39065382 
   31400   0.78268259   0.15868579    20.492105    21.824521   0.46215338 
   31500   0.79086351   0.14955133    20.485724    21.821274   0.36452708 
   31600   0.80088727   0.14212798    20.488343    21.831502   0.26184962 
   31700   0.82310851   0.14628308    20.478452    21.859089   0.35978723 
   31800   0.81101229   0.14491754    20.493727    21.854858   0.32426348 
   31900   0.81089491   0.14836001    20.476223    21.840621   0.49336119 
   32000   0.78700301   0.15272955    20.496777    21.829716   0.27318899 
Loop time of 2.51614 on 1 procs for 2000 steps with 4000 atoms

Pair  time (%) = 0.790144 (31.403)
Bond  time (%) = 0.327412 (13.0124)
Neigh time (%) = 0.279938 (11.1257)
Comm  time (%) = 0.0665736 (2.64586)
Outpt time (%) = 0.000877142 (0.0348606)
Other time (%) = 1.0512 (41.7781)

Nlocal:    4000 ave 4000 max 4000 min
Histogram: 1 0 0 0 0 0 0 0 0 0
Nghost:    2279 ave 2279 max 2279 min
Histogram: 1 0 0 0 0 0 0 0 0 0
Neighs:    11776 ave 11776 max 11776 min
Histogram: 1 0 0 0 0 0 0 0 0 0

Total # of neighbors = 11776
Ave neighs/atom = 2.944
Ave special neighs/atom = 5.925
Neighbor list builds = 74
Dangerous builds = 0
shell          head -n 2 Temp.txt | tail -n 1 >> Tempfile.txt
next           myTempStr
jump           imdinput.txt loop2here

# specifies the run length in timesteps
run            2000
WARNING: Use special bonds = 0,1,1 with bond style fene (../bond_fene.cpp:187)
Memory usage per processor = 6.2754 Mbytes
Step Temp E_pair E_mol TotEng Press 
   32000   0.78700301   0.15272955    20.496777    21.829716   0.27318899 
   32100   0.78929222   0.15163123    20.497796     21.83307   0.52610919 
   32200   0.79951639   0.15687123    20.477149    21.832995   0.24836245 
   32300   0.80027463   0.15474235    20.490729    21.845583   0.36626713 
   32400   0.79899314   0.15316733     20.49636    21.847717   0.28301237 
   32500   0.80649963   0.15286328    20.498664    21.860974   0.50295187 
   32600   0.80171911    0.1550965    20.488339    21.845714   0.50928213 
   32700   0.80593753    0.1532821    20.498469    21.860355   0.25860224 
   32800   0.79706923   0.16077271    20.490851    21.846929   0.43759459 
   32900   0.80523128   0.16028154    20.490677    21.858504   0.42567656 
   33000    0.8042182   0.15548749    20.489588    21.851101   0.46993365 
   33100   0.80828789   0.15767173    20.494259     21.86406   0.30423984 
   33200   0.80768531   0.16196982    20.495451    21.868646   0.27818924 
   33300   0.81358416   0.16304871    20.482616    21.865735   0.36743544 
   33400   0.81563423   0.15387107    20.491843     21.86886   0.31953163 
   33500    0.8007796   0.15547632     20.49093    21.847276   0.27145407 
   33600   0.79515098   0.15991673    20.480486    21.832831   0.29036569 
   33700   0.80934222   0.15890112    20.473257    21.845868   0.29646728 
   33800   0.78748573   0.15342155    20.501542    21.835897   0.49124409 
   33900   0.79779144   0.15774078    20.486903    21.841031   0.45667334 
   34000   0.80175767   0.15888739    20.486836    21.848059   0.12792059 
Loop time of 2.50943 on 1 procs for 2000 steps with 4000 atoms

Pair  time (%) = 0.800899 (31.9156)
Bond  time (%) = 0.327527 (13.0518)
Neigh time (%) = 0.278596 (11.102)
Comm  time (%) = 0.0661337 (2.63541)
Outpt time (%) = 0.000845194 (0.0336807)
Other time (%) = 1.03543 (41.2615)

Nlocal:    4000 ave 4000 max 4000 min
Histogram: 1 0 0 0 0 0 0 0 0 0
Nghost:    2324 ave 2324 max 2324 min
Histogram: 1 0 0 0 0 0 0 0 0 0
Neighs:    12047 ave 12047 max 12047 min
Histogram: 1 0 0 0 0 0 0 0 0 0

Total # of neighbors = 12047
Ave neighs/atom = 3.01175
Ave special neighs/atom = 5.925
Neighbor list builds = 74
Dangerous builds = 0
shell          head -n 2 Temp.txt | tail -n 1 >> Tempfile.txt
next           myTempStr
jump           imdinput.txt loop2here

# specifies the run length in timesteps
run            2000
WARNING: Use special bonds = 0,1,1 with bond style fene (../bond_fene.cpp:187)
Memory usage per processor = 6.2754 Mbytes
Step Temp E_pair E_mol TotEng Press 
   34000   0.80175767   0.15888739    20.486836    21.848059   0.12792059 
   34100   0.79633686   0.15276714    20.493383    21.840356   0.24198184 
   34200   0.79563148   0.15489897    20.487903    21.835951   0.46304187 
   34300   0.81144005   0.15214616    20.486816    21.855818   0.25785381 
   34400   0.81207102   0.15713769    20.475389    21.850328   0.55438535 
   34500   0.79242668    0.1618282    20.494719     21.84489   0.41848545 
   34600   0.80674858    0.1592682    20.488309    21.857397   0.35990185 
   34700   0.80503784   0.15840248    20.488539    21.854197   0.37557363 
   34800   0.80206893   0.16313831    20.498222    21.864163   0.25620253 
   34900   0.80839737   0.16501528    20.488632     21.86594   0.40097588 
   35000   0.80009067   0.16335371    20.486588    21.849778   0.59318191 
   35100   0.80224468    0.1618603    20.479693    21.844619   0.29034434 
   35200   0.81215976   0.15709771    20.473363    21.848395    0.6124185 
   35300   0.82657277   0.15594943    20.475595    21.871093   0.38750876 
   35400   0.81280231   0.14819348    20.493252    21.860344   0.34490825 
   35500    0.8227413   0.15241388    20.478339    21.864556   0.22831982 
   35600   0.80084434   0.15300016    20.495182    21.849149   0.41877137 
   35700   0.80088781   0.15145004    20.490432    21.842914   0.42681918 
   35800   0.79515674   0.15328009    20.492877    21.838594   0.29051416 
   35900   0.79101988   0.15481438    20.489495    21.830542   0.30273108 
   36000   0.78844162   0.15695207    20.490388    21.829707   0.34290095 
Loop time of 2.53949 on 1 procs for 2000 steps with 4000 atoms

Pair  time (%) = 0.805994 (31.7384)
Bond  time (%) = 0.329312 (12.9676)
Neigh time (%) = 0.278234 (10.9563)
Comm  time (%) = 0.0678952 (2.67357)
Outpt time (%) = 0.000864506 (0.0340425)
Other time (%) = 1.05719 (41.6301)

Nlocal:    4000 ave 4000 max 4000 min
Histogram: 1 0 0 0 0 0 0 0 0 0
Nghost:    2340 ave 2340 max 2340 min
Histogram: 1 0 0 0 0 0 0 0 0 0
Neighs:    11808 ave 11808 max 11808 min
Histogram: 1 0 0 0 0 0 0 0 0 0

Total # of neighbors = 11808
Ave neighs/atom = 2.952
Ave special neighs/atom = 5.925
Neighbor list builds = 73
Dangerous builds = 0
shell          head -n 2 Temp.txt | tail -n 1 >> Tempfile.txt
next           myTempStr
jump           imdinput.txt loop2here

# specifies the run length in timesteps
run            2000
WARNING: Use special bonds = 0,1,1 with bond style fene (../bond_fene.cpp:187)
Memory usage per processor = 6.2754 Mbytes
Step Temp E_pair E_mol TotEng Press 
   36000   0.78844162   0.15695207    20.490388    21.829707   0.34290095 
   36100   0.78491822   0.15791597    20.481632    21.816631   0.38530479 
   36200   0.78285178   0.15424201    20.492628    21.820854   0.26221357 
   36300   0.78390446   0.15065983    20.478834    21.805057   0.50661281 
   36400    0.7812011   0.15354776    20.493436    21.818492   0.22497626 
   36500    0.7925848   0.15467945    20.481914    21.825174   0.45988181 
   36600   0.78468724   0.15873276    20.482788    21.818257   0.35165068 
   36700     0.786066   0.16045423     20.48145    21.820708   0.47860066 
   36800   0.79285467   0.15577947      20.4785    21.823264   0.20465571 
   36900   0.78312297   0.15408162    20.481324    21.809796   0.46196062 
   37000   0.78036694   0.15269933    20.482529    21.805486   0.38873904 
   37100   0.79772447    0.1523522    20.470925    21.819565   0.09740169 
   37200   0.79975158   0.15245568    20.470887    21.822671   0.49113031 
   37300   0.80400322   0.15804502    20.468228    21.831977   0.10404848 
   37400   0.80563424   0.16023721    20.460919    21.829305   0.40622448 
   37500   0.78217991   0.16022847    20.494744    21.827949    0.3602887 
   37600    0.8021858    0.1575126    20.463534    21.824025    0.4148745 
   37700   0.79385196   0.16218524    20.462506    21.815171    0.2432095 
   37800   0.79091794   0.16578505     20.46725    21.819115   0.18860378 
   37900   0.79471042   0.16309518    20.471981    21.826844   0.18642321 
   38000   0.78237088   0.16109576    20.493894    21.828252   0.50790964 
Loop time of 2.51498 on 1 procs for 2000 steps with 4000 atoms

Pair  time (%) = 0.799769 (31.8003)
Bond  time (%) = 0.327839 (13.0355)
Neigh time (%) = 0.278703 (11.0817)
Comm  time (%) = 0.0676298 (2.68908)
Outpt time (%) = 0.00079608 (0.0316536)
Other time (%) = 1.04024 (41.3618)

Nlocal:    4000 ave 4000 max 4000 min
Histogram: 1 0 0 0 0 0 0 0 0 0
Nghost:    2320 ave 2320 max 2320 min
Histogram: 1 0 0 0 0 0 0 0 0 0
Neighs:    11941 ave 11941 max 11941 min
Histogram: 1 0 0 0 0 0 0 0 0 0

Total # of neighbors = 11941
Ave neighs/atom = 2.98525
Ave special neighs/atom = 5.925
Neighbor list builds = 74
Dangerous builds = 0
shell          head -n 2 Temp.txt | tail -n 1 >> Tempfile.txt
next           myTempStr
jump           imdinput.txt loop2here

# specifies the run length in timesteps
run            2000
WARNING: Use special bonds = 0,1,1 with bond style fene (../bond_fene.cpp:187)
Memory usage per processor = 6.2754 Mbytes
Step Temp E_pair E_mol TotEng Press 
   38000   0.78237088   0.16109576    20.493894    21.828252   0.50790964 
   38100   0.79403153   0.15975095    20.484366    21.834866   0.40540401 
   38200    0.8013278   0.16084243    20.477842    21.840375   0.11565512 
   38300    0.8024139   0.15864966    20.479405    21.841375   0.09473577 
   38400   0.79737957   0.15966772     20.47749    21.832928   0.46615694 
   38500   0.79931581   0.16050304    20.484777    21.843954    0.3248531 
   38600   0.79608927   0.15932848    20.492462    21.845626   0.39790672 
   38700   0.82038135    0.1528885      20.4794    21.862553   0.46309673 
   38800     0.811995    0.1511889    20.482921    21.851798   0.11919307 
   38900   0.81467877   0.15266219    20.490315     21.86469   0.40473142 
   39000   0.80432904   0.15849696    20.496201     21.86089   0.23772132 
   39100   0.80848827   0.15873448    20.502577    21.873741   0.45184326 
   39200   0.81383933   0.15887551    20.503962    21.883292   0.41587836 
   39300   0.82314621   0.15329393     20.50848    21.896185   0.35357655 
   39400   0.82052198   0.14719643    20.498768     21.87644   0.43903735 
   39500   0.80896625   0.15049633    20.503569    21.867212   0.27993965 
   39600   0.82400032   0.15146744    20.501099    21.888258   0.39866963 
   39700   0.81550606   0.15229779    20.498007    21.873258   0.29783353 
   39800    0.7965761   0.15218333    20.500177    21.846925   0.29684802 
   39900   0.78996633   0.15410583    20.504291     21.84305   0.30296288 
   40000   0.80328866   0.15297792    20.488917    21.846527   0.55129728 
Loop time of 2.511 on 1 procs for 2000 steps with 4000 atoms

Pair  time (%) = 0.795505 (31.6808)
Bond  time (%) = 0.328712 (13.0908)
Neigh time (%) = 0.280176 (11.1579)
Comm  time (%) = 0.066422 (2.64524)
Outpt time (%) = 0.000838995 (0.0334128)
Other time (%) = 1.03935 (41.3918)

Nlocal:    4000 ave 4000 max 4000 min
Histogram: 1 0 0 0 0 0 0 0 0 0
Nghost:    2293 ave 2293 max 2293 min
Histogram: 1 0 0 0 0 0 0 0 0 0
Neighs:    11876 ave 11876 max 11876 min
Histogram: 1 0 0 0 0 0 0 0 0 0

Total # of neighbors = 11876
Ave neighs/atom = 2.969
Ave special neighs/atom = 5.925
Neighbor list builds = 74
Dangerous builds = 0
shell          head -n 2 Temp.txt | tail -n 1 >> Tempfile.txt
next           myTempStr
jump           imdinput.txt loop2here

# specifies the run length in timesteps
run            2000
WARNING: Use special bonds = 0,1,1 with bond style fene (../bond_fene.cpp:187)
Memory usage per processor = 6.2754 Mbytes
Step Temp E_pair E_mol TotEng Press 
   40000   0.80328866   0.15297792    20.488917    21.846527   0.55129728 
   40100    0.7978504   0.15211248    20.490298    21.838887   0.33987496 
   40200   0.80329186   0.15609708     20.49202    21.852754     0.216549 
   40300   0.81078503   0.15180807    20.482723    21.850405   0.39590081 
   40400   0.80725888   0.15538998    20.497695     21.86367   0.20845644 
   40500   0.81726941   0.15854236    20.483929    21.868069   0.36081993 
   40600   0.79996135   0.16180174    20.483674    21.845117   0.30667206 
   40700   0.81249157   0.15839836     20.48283    21.859661   0.33321472 
   40800   0.80920187   0.15732893    20.485761     21.85659   0.18107824 
   40900   0.81356507   0.15459135     20.49006    21.864694    0.3547134 
   41000   0.82129316   0.15025855    20.482461    21.864351   0.51780175 
   41100   0.81207245   0.15566876    20.487291    21.860764   0.15293407 
   41200   0.79226627   0.16289103    20.495975    21.846968   0.24211132 
   41300   0.79140145   0.16305296    20.494422     21.84428    0.2011531 
   41400   0.80149489   0.15790183    20.477279    21.837122   0.48235907 
   41500    0.8056988   0.15714398    20.484075    21.849465   0.31083233 
   41600   0.81082519   0.15418784    20.497105    21.867227   0.42695066 
   41700   0.81130258   0.15282329    20.483322    21.852795   0.41478423 
   41800   0.79289922   0.15309674    20.491891    21.834039   0.37199924 
   41900   0.80477425   0.14643848    20.483635    21.836933   0.32754664 
   42000   0.79026994   0.14975361    20.500268     21.83513   0.37046236 
Loop time of 2.49532 on 1 procs for 2000 steps with 4000 atoms

Pair  time (%) = 0.79103 (31.7005)
Bond  time (%) = 0.327067 (13.1072)
Neigh time (%) = 0.278595 (11.1647)
Comm  time (%) = 0.0669205 (2.68184)
Outpt time (%) = 0.000866652 (0.034731)
Other time (%) = 1.03085 (41.3111)

Nlocal:    4000 ave 4000 max 4000 min
Histogram: 1 0 0 0 0 0 0 0 0 0
Nghost:    2306 ave 2306 max 2306 min
Histogram: 1 0 0 0 0 0 0 0 0 0
Neighs:    11816 ave 11816 max 11816 min
Histogram: 1 0 0 0 0 0 0 0 0 0

Total # of neighbors = 11816
Ave neighs/atom = 2.954
Ave special neighs/atom = 5.925
Neighbor list builds = 74
Dangerous builds = 0
shell          head -n 2 Temp.txt | tail -n 1 >> Tempfile.txt
next           myTempStr
jump           imdinput.txt loop2here

# specifies the run length in timesteps
run            2000
WARNING: Use special bonds = 0,1,1 with bond style fene (../bond_fene.cpp:187)
Memory usage per processor = 6.2754 Mbytes
Step Temp E_pair E_mol TotEng Press 
   42000   0.79026994   0.14975361    20.500268     21.83513   0.37046236 
   42100   0.79184266   0.14978742    20.504169    21.841424   0.37963926 
   42200   0.80413751   0.14955371    20.489051    21.844509   0.44937169 
   42300   0.80302009   0.15455548    20.502144    21.860928    0.3634076 
   42400   0.81671078      0.16003    20.497315    21.882105   0.20751396 
   42500   0.81944065    0.1609461    20.499605    21.889405   0.28813233 
   42600    0.8102343   0.16340627     20.49886    21.877314   0.22413788 
   42700   0.80027991   0.16854774    20.490025    21.858692   0.37624963 
   42800   0.80608047   0.16595344    20.478884    21.853656   0.36406739 
   42900    0.7996133   0.16101913     20.47697    21.837109   0.30772871 
   43000   0.79990009   0.15700343    20.487513    21.844067   0.17955267 
   43100   0.80840374   0.15524361    20.479872    21.847418   0.35730326 
   43200   0.81091291   0.15704708    20.486237    21.859349   0.20909376 
   43300   0.81493163   0.16040201    20.483779    21.866273   0.23545231 
   43400   0.80698275   0.15949663    20.488198    21.857867   0.15467546 
   43500   0.79136955   0.16181785    20.489381    21.837956   0.30540335 
   43600   0.80161643   0.16223467    20.495194    21.859552    0.2510915 
   43700   0.80809938   0.16826002    20.488664     21.86877   0.58149134 
   43800   0.79127493   0.16641487    20.485439     21.83847   0.26943693 
   43900   0.79862756   0.16807585    20.473991    21.839708    0.2889428 
   44000   0.80799751   0.16081441    20.471052     21.84356   0.42500738 
Loop time of 2.51426 on 1 procs for 2000 steps with 4000 atoms

Pair  time (%) = 0.800219 (31.8272)
Bond  time (%) = 0.327875 (13.0406)
Neigh time (%) = 0.279663 (11.1231)
Comm  time (%) = 0.0665178 (2.64562)
Outpt time (%) = 0.000789404 (0.031397)
Other time (%) = 1.0392 (41.3321)

Nlocal:    4000 ave 4000 max 4000 min
Histogram: 1 0 0 0 0 0 0 0 0 0
Nghost:    2398 ave 2398 max 2398 min
Histogram: 1 0 0 0 0 0 0 0 0 0
Neighs:    12113 ave 12113 max 12113 min
Histogram: 1 0 0 0 0 0 0 0 0 0

Total # of neighbors = 12113
Ave neighs/atom = 3.02825
Ave special neighs/atom = 5.925
Neighbor list builds = 74
Dangerous builds = 0
shell          head -n 2 Temp.txt | tail -n 1 >> Tempfile.txt
next           myTempStr
jump           imdinput.txt loop2here

# specifies the run length in timesteps
run            2000
WARNING: Use special bonds = 0,1,1 with bond style fene (../bond_fene.cpp:187)
Memory usage per processor = 6.2754 Mbytes
Step Temp E_pair E_mol TotEng Press 
   44000   0.80799751   0.16081441    20.471052     21.84356   0.42500738 
   44100   0.80165919   0.15575145     20.48947     21.84741  0.094512187 
   44200   0.81529704   0.15984283    20.470686    21.853168   0.56925279 
   44300   0.79972923   0.15882939      20.4913    21.849423   0.33474525 
   44400   0.80634072   0.15978736    20.484179    21.853175   0.17456616 
   44500   0.81028575   0.15644178     20.48595    21.857517   0.13799506 
   44600   0.81900871   0.15726781    20.479103    21.864576   0.17921531 
   44700   0.82130664   0.15719184    20.483708    21.872552   0.43795108 
   44800   0.80882038   0.16465069    20.494487    21.872065   0.22967468 
   44900   0.80816848   0.16206007    20.483771    21.857781   0.28535872 
   45000   0.81659308   0.15656755    20.485056    21.866207   0.38527465 
   45100   0.81962007   0.15392088    20.494782    21.877825   0.16364731 
   45200   0.81753031    0.1553956    20.481731    21.863116   0.19409148 
   45300   0.80840723   0.15746819    20.492148    21.861924   0.38272909 
   45400   0.81400337   0.15645172    20.496792    21.873944   0.39185182 
   45500   0.82391199   0.15579325    20.495046    21.886398   0.36239386 
   45600   0.81378332   0.15751872    20.490389    21.868278   0.42554927 
   45700     0.806093   0.16033655    20.511837    21.881011   0.24886764 
   45800   0.81257299    0.1591151     20.49365     21.87132   0.41113134 
   45900   0.80425398   0.16429741    20.507967    21.878344   0.30482803 
   46000   0.82323759   0.16901093    20.497225    21.900783   0.46391854 
Loop time of 2.52507 on 1 procs for 2000 steps with 4000 atoms

Pair  time (%) = 0.801887 (31.757)
Bond  time (%) = 0.326736 (12.9397)
Neigh time (%) = 0.280682 (11.1158)
Comm  time (%) = 0.0697255 (2.76133)
Outpt time (%) = 0.000821829 (0.0325468)
Other time (%) = 1.04521 (41.3935)

Nlocal:    4000 ave 4000 max 4000 min
Histogram: 1 0 0 0 0 0 0 0 0 0
Nghost:    2409 ave 2409 max 2409 min
Histogram: 1 0 0 0 0 0 0 0 0 0
Neighs:    11938 ave 11938 max 11938 min
Histogram: 1 0 0 0 0 0 0 0 0 0

Total # of neighbors = 11938
Ave neighs/atom = 2.9845
Ave special neighs/atom = 5.925
Neighbor list builds = 74
Dangerous builds = 0
shell          head -n 2 Temp.txt | tail -n 1 >> Tempfile.txt
next           myTempStr
jump           imdinput.txt loop2here

# specifies the run length in timesteps
run            2000
WARNING: Use special bonds = 0,1,1 with bond style fene (../bond_fene.cpp:187)
Memory usage per processor = 6.2754 Mbytes
Step Temp E_pair E_mol TotEng Press 
   46000   0.82323759   0.16901093    20.497225    21.900783   0.46391854 
   46100   0.81298227   0.16311056    20.500101     21.88238   0.10658572 
   46200   0.81122149   0.15878772     20.50013    21.875445   0.38962203 
   46300   0.81773682    0.1535367    20.499111    21.878946   0.17943962 
   46400   0.81205637   0.15192508    20.502432    21.872137    0.4611534 
   46500   0.80729878   0.15449422    20.512191     21.87733   0.27283575 
   46600    0.8198102   0.15404738    20.492352    21.875807   0.24577046 
   46700    0.8080967   0.16013071    20.500527      21.8725   0.14198684 
   46800   0.80645827   0.16289444     20.50031    21.872589   0.26291017 
   46900   0.80795769   0.15668748    20.499708    21.868029  0.032951078 
   47000   0.81555688   0.15079224    20.494283    21.868105    0.4911347 
   47100   0.80657952   0.14922443    20.503627    21.862419   0.33302998 
   47200   0.80367875   0.15626868    20.494827    21.856312   0.23535473 
   47300    0.8012103    0.1593903    20.485074    21.845979    0.2674586 
   47400   0.79284989    0.1623577    20.499535     21.85087   0.49361793 
   47500   0.80696674   0.15985636    20.486807     21.85681   0.44741831 
   47600   0.80049882   0.15939038    20.497856    21.857694    0.4457234 
   47700   0.79936644   0.15884843    20.493307    21.850906 -0.065008949 
   47800   0.79011763   0.15129223    20.500112    21.836284   0.48927494 
   47900   0.79142954   0.15034639    20.500318    21.837512   0.23069283 
   48000   0.80740101   0.14622932    20.494902     21.85193   0.49340885 
Loop time of 2.52371 on 1 procs for 2000 steps with 4000 atoms

Pair  time (%) = 0.803874 (31.8529)
Bond  time (%) = 0.326607 (12.9416)
Neigh time (%) = 0.276964 (10.9745)
Comm  time (%) = 0.068656 (2.72044)
Outpt time (%) = 0.000797272 (0.0315913)
Other time (%) = 1.04681 (41.479)

Nlocal:    4000 ave 4000 max 4000 min
Histogram: 1 0 0 0 0 0 0 0 0 0
Nghost:    2350 ave 2350 max 2350 min
Histogram: 1 0 0 0 0 0 0 0 0 0
Neighs:    11840 ave 11840 max 11840 min
Histogram: 1 0 0 0 0 0 0 0 0 0

Total # of neighbors = 11840
Ave neighs/atom = 2.96
Ave special neighs/atom = 5.925
Neighbor list builds = 73
Dangerous builds = 0
shell          head -n 2 Temp.txt | tail -n 1 >> Tempfile.txt
next           myTempStr
jump           imdinput.txt loop2here

# specifies the run length in timesteps
run            2000
WARNING: Use special bonds = 0,1,1 with bond style fene (../bond_fene.cpp:187)
Memory usage per processor = 6.2754 Mbytes
Step Temp E_pair E_mol TotEng Press 
   48000   0.80740101   0.14622932    20.494902     21.85193   0.49340885 
   48100   0.81138373   0.14476645    20.495563    21.857101   0.38674619 
   48200   0.79817144   0.15053051    20.491381    21.838869   0.35743396 
   48300   0.78879025    0.1566914    20.499404    21.838985   0.36652516 
   48400   0.80300463   0.16168656    20.487245    21.853138   0.25579805 
   48500   0.80327249   0.15481119    20.496196    21.855615   0.42067293 
   48600   0.80459441   0.15743831    20.487175    21.851203   0.48851418 
   48700   0.78819635   0.15896955     20.50294    21.843908   0.16544741 
   48800   0.79731215   0.15794842    20.480871    21.834488   0.31691016 
   48900   0.80373177    0.1535747    20.497485    21.856356   0.33262067 
   49000   0.81719723   0.15294337    20.491061    21.869494   0.16893392 
   49100   0.81332664    0.1553497    20.502812    21.877847   0.18803633 
   49200   0.81223766   0.14938981    20.495613    21.863055    0.2397515 
   49300   0.81635324   0.15280808    20.489765    21.866797   0.42436767 
   49400   0.81107117   0.14961997    20.483702    21.849625    0.4425348 
   49500   0.81268869   0.14936613    20.493813    21.861908   0.18863285 
   49600   0.80593263   0.15116717    20.495752    21.855516   0.40889512 
   49700   0.81355147   0.14890923     20.48948    21.858412   0.31549193 
   49800   0.80663858   0.15647464    20.499739    21.865869   0.29533301 
   49900   0.79537202   0.16091434    20.508145    21.861819   0.40604849 
   50000   0.80732279   0.16159913    20.503043    21.875323   0.32386822 
Loop time of 2.5163 on 1 procs for 2000 steps with 4000 atoms

Pair  time (%) = 0.798272 (31.7241)
Bond  time (%) = 0.330117 (13.1192)
Neigh time (%) = 0.276864 (11.0028)
Comm  time (%) = 0.0684004 (2.7183)
Outpt time (%) = 0.000784874 (0.0311916)
Other time (%) = 1.04186 (41.4044)

Nlocal:    4000 ave 4000 max 4000 min
Histogram: 1 0 0 0 0 0 0 0 0 0
Nghost:    2382 ave 2382 max 2382 min
Histogram: 1 0 0 0 0 0 0 0 0 0
Neighs:    11848 ave 11848 max 11848 min
Histogram: 1 0 0 0 0 0 0 0 0 0

Total # of neighbors = 11848
Ave neighs/atom = 2.962
Ave special neighs/atom = 5.925
Neighbor list builds = 73
Dangerous builds = 0
shell          head -n 2 Temp.txt | tail -n 1 >> Tempfile.txt
next           myTempStr
jump           imdinput.txt loop2here

# specifies the run length in timesteps
run            2000
WARNING: Use special bonds = 0,1,1 with bond style fene (../bond_fene.cpp:187)
Memory usage per processor = 6.2754 Mbytes
Step Temp E_pair E_mol TotEng Press 
   50000   0.80732279   0.16159913    20.503043    21.875323   0.32386822 
   50100   0.81290641   0.16608959    20.481545    21.866689   0.33819496 
   50200   0.79535992   0.17027798      20.5006    21.863619   0.47484939 
   50300   0.80005628   0.16590681     20.48421    21.849901   0.58148404 
   50400   0.80715719   0.15901825    20.492553    21.862004   0.16874835 
   50500    0.8112448   0.15620981    20.482039    21.854812   0.47265203 
   50600   0.80379091   0.15695376    20.485215    21.847554    0.2207226 
   50700   0.80331427   0.15788884    20.482809    21.845368     0.414002 
   50800   0.79362344   0.15581565    20.482826    21.828779    0.3764723 
   50900   0.80317022   0.15542551    20.481512    21.841391   0.43091175 
   51000   0.80811958   0.15754323     20.48698    21.856399   0.35519085 
   51100   0.79771735   0.15806992    20.487685    21.842032   0.18609518 
   51200   0.81428877   0.15715096    20.488777    21.867056   0.54444748 
   51300   0.79790131   0.16082574    20.500978    21.858356   0.34267308 
   51400    0.8035736   0.16277292    20.492415    21.860247   0.23158552 
   51500   0.79771955   0.16108259    20.507376    21.864738   0.31450616 
   51600   0.80244962   0.15995399    20.507686    21.871014    0.2905072 
   51700   0.80485796   0.15694568    20.501656    21.865587   0.32034374 
   51800   0.81083741   0.16262305      20.4952    21.873776   0.33287843 
   51900    0.7958708   0.15712551    20.501224    21.851857   0.29315273 
   52000   0.80511595   0.15287775    20.500293    21.860543     0.343949 
Loop time of 2.5235 on 1 procs for 2000 steps with 4000 atoms

Pair  time (%) = 0.810012 (32.0988)
Bond  time (%) = 0.32997 (13.0759)
Neigh time (%) = 0.277665 (11.0032)
Comm  time (%) = 0.0691998 (2.74222)
Outpt time (%) = 0.000815392 (0.032312)
Other time (%) = 1.03583 (41.0475)

Nlocal:    4000 ave 4000 max 4000 min
Histogram: 1 0 0 0 0 0 0 0 0 0
Nghost:    2421 ave 2421 max 2421 min
Histogram: 1 0 0 0 0 0 0 0 0 0
Neighs:    11889 ave 11889 max 11889 min
Histogram: 1 0 0 0 0 0 0 0 0 0

Total # of neighbors = 11889
Ave neighs/atom = 2.97225
Ave special neighs/atom = 5.925
Neighbor list builds = 73
Dangerous builds = 0
shell          head -n 2 Temp.txt | tail -n 1 >> Tempfile.txt
next           myTempStr
jump           imdinput.txt loop2here

# specifies the run length in timesteps
run            2000
WARNING: Use special bonds = 0,1,1 with bond style fene (../bond_fene.cpp:187)
Memory usage per processor = 6.27542 Mbytes
Step Temp E_pair E_mol TotEng Press 
   52000   0.80511595   0.15287775    20.500293    21.860543     0.343949 
   52100   0.81050725   0.15417109    20.486966    21.856594   0.18857335 
   52200   0.82367726   0.15706833    20.487149    21.879425   0.31782904 
   52300   0.82242651   0.16187379    20.486777    21.881983   0.25719967 
   52400   0.82522455   0.16732004    20.496947    21.901795   0.28834138 
   52500   0.81688954   0.16992472    20.493492    21.888445   0.40235539 
   52600   0.82050221   0.16089117    20.501732    21.893069   0.39607467 
   52700    0.8286764   0.15540339    20.502255    21.900363   0.19390722 
   52800   0.82799815   0.15173244    20.494357    21.887776   0.16676958 
   52900   0.83391874   0.15228008    20.489047    21.891893   0.58204301 
   53000   0.82867235   0.15506917    20.508581    21.906348   0.39256608 
   53100   0.83851491   0.16184833    20.494386    21.913693   0.19801352 
   53200    0.8292451    0.1659473    20.496844    21.906348   0.12338027 
   53300   0.82664984   0.16341196    20.492334    21.895411   0.22640995 
   53400   0.82686136   0.17045973    20.497417    21.907858   0.30422831 
   53500   0.83063971   0.17030181     20.51656     21.93251   0.14184785 
   53600   0.83960637   0.17109292    20.498832     21.92902   0.36567512 
   53700   0.81200337   0.16765726    20.502404    21.887762   0.42989994 
   53800   0.80667912    0.1691159    20.492708     21.87154    0.2859506 
   53900   0.81554577   0.16477289    20.486434    21.874219   0.29882939 
   54000   0.81176929   0.15884782    20.488228    21.864425   0.24001249 
Loop time of 2.79 on 1 procs for 2000 steps with 4000 atoms

Pair  time (%) = 0.806709 (28.9143)
Bond  time (%) = 0.327774 (11.7482)
Neigh time (%) = 0.525819 (18.8466)
Comm  time (%) = 0.081912 (2.93592)
Outpt time (%) = 0.00082016 (0.0293964)
Other time (%) = 1.04696 (37.5256)

Nlocal:    4000 ave 4000 max 4000 min
Histogram: 1 0 0 0 0 0 0 0 0 0
Nghost:    2433 ave 2433 max 2433 min
Histogram: 1 0 0 0 0 0 0 0 0 0
Neighs:    12027 ave 12027 max 12027 min
Histogram: 1 0 0 0 0 0 0 0 0 0

Total # of neighbors = 12027
Ave neighs/atom = 3.00675
Ave special neighs/atom = 5.925
Neighbor list builds = 139
Dangerous builds = 0
shell          head -n 2 Temp.txt | tail -n 1 >> Tempfile.txt
next           myTempStr
jump           imdinput.txt loop2here

# specifies the run length in timesteps
run            2000
WARNING: Use special bonds = 0,1,1 with bond style fene (../bond_fene.cpp:187)
Memory usage per processor = 6.27542 Mbytes
Step Temp E_pair E_mol TotEng Press 
   54000   0.81176929   0.15884782    20.488228    21.864425   0.24001249 
   54100   0.81871264   0.16132923    20.482408    21.871499   0.28424986 
   54200   0.83201814   0.15672737    20.489917    21.894359    0.3156266 
   54300   0.82098106   0.15997472    20.502451     21.89359   0.18509857 
   54400   0.82045692   0.16198824    20.499689    21.892055   0.21396274 
   54500   0.81498106   0.16199922    20.512944     21.89711   0.23333295 
   54600   0.81690676   0.15809439    20.484496    21.867645    0.4240888 
   54700   0.81237731   0.16035387    20.495809    21.874424   0.37874437 
   54800   0.81670494   0.16040862    20.501727    21.886887   0.34582358 
   54900   0.81156973   0.15860539     20.51691    21.892565   0.12987579 
   55000   0.81593214   0.15986455    20.516573     21.90003   0.29022847 
   55100   0.80915453   0.15961407    20.518925    21.891967    0.3289767 
   55200   0.82021574   0.15860015    20.509557    21.898173   0.42563858 
   55300   0.81995457   0.16092919    20.511662    21.902216   0.28132451 
   55400   0.82835649   0.15719203    20.517458    21.916874 0.0094387462 
   55500   0.85032715   0.15417755    20.508594    21.937944    0.2356808 
   55600   0.84048924   0.15610202     20.52907    21.945591   0.21258678 
   55700   0.87089233   0.16333168    20.514109    21.983453   0.41448447 
   55800   0.86903621   0.16957956    20.523025    21.995833    0.2407078 
   55900   0.86339663   0.16767279    20.524586     21.98703   0.43925288 
   56000   0.87269101   0.16189158    20.503359     21.97396   0.15795751 
Loop time of 2.81242 on 1 procs for 2000 steps with 4000 atoms

Pair  time (%) = 0.806463 (28.6751)
Bond  time (%) = 0.328104 (11.6662)
Neigh time (%) = 0.521021 (18.5257)
Comm  time (%) = 0.0805798 (2.86514)
Outpt time (%) = 0.000777245 (0.0276362)
Other time (%) = 1.07547 (38.2402)

Nlocal:    4000 ave 4000 max 4000 min
Histogram: 1 0 0 0 0 0 0 0 0 0
Nghost:    2342 ave 2342 max 2342 min
Histogram: 1 0 0 0 0 0 0 0 0 0
Neighs:    11933 ave 11933 max 11933 min
Histogram: 1 0 0 0 0 0 0 0 0 0

Total # of neighbors = 11933
Ave neighs/atom = 2.98325
Ave special neighs/atom = 5.925
Neighbor list builds = 138
Dangerous builds = 0
shell          head -n 2 Temp.txt | tail -n 1 >> Tempfile.txt
next           myTempStr
jump           imdinput.txt loop2here

# specifies the run length in timesteps
run            2000
WARNING: Use special bonds = 0,1,1 with bond style fene (../bond_fene.cpp:187)
Memory usage per processor = 6.27542 Mbytes
Step Temp E_pair E_mol TotEng Press 
   56000   0.87269101   0.16189158    20.503359     21.97396   0.15795751 
   56100   0.86274202   0.16209182    20.509009     21.96489  0.060460449 
   56200   0.85674568    0.1693535    20.517028    21.971179   0.33667022 
   56300   0.85832168   0.16221695    20.498564    21.947942  0.054247222 
   56400   0.85621963   0.15723475    20.496692    21.937935   0.42635778 
   56500   0.85857238   0.15771285    20.506626    21.951876   0.39951166 
   56600    0.8462989   0.15700488    20.500995    21.927131   0.32582235 
   56700   0.82194659   0.15646167    20.493715    21.882789   0.17323641 
   56800   0.83415252   0.15294385    20.505684    21.909544   0.29822042 
   56900   0.82245599   0.15741907    20.511607    21.902402   0.12143083 
   57000   0.82140872   0.16561008    20.499144    21.896559   0.32437669 
   57100   0.81900557   0.16186407    20.504148    21.894214  0.090574036 
   57200   0.81428743   0.16105099    20.517017    21.899194   0.28092285 
   57300   0.82158308    0.1668324    20.502949    21.901848    0.2126257 
   57400   0.81089388   0.17462657     20.49587    21.886533   0.27105825 
   57500   0.79970981   0.16920704    20.504891    21.873363   0.17711992 
   57600   0.81068426   0.16341879    20.482528     21.86167   0.11515219 
   57700   0.80860478   0.15804685    20.495344    21.865995   0.32428257 
   57800   0.80446243   0.15855474    20.483825    21.848771   0.34939589 
   57900   0.80782022   0.15985038    20.483454    21.854732   0.49274974 
   58000   0.79809022   0.15807643    20.488027    21.842939  0.034452646 
Loop time of 2.70982 on 1 procs for 2000 steps with 4000 atoms

Pair  time (%) = 0.808009 (29.8178)
Bond  time (%) = 0.328247 (12.1133)
Neigh time (%) = 0.443198 (16.3553)
Comm  time (%) = 0.0768092 (2.83448)
Outpt time (%) = 0.000880957 (0.0325098)
Other time (%) = 1.05267 (38.8466)

Nlocal:    4000 ave 4000 max 4000 min
Histogram: 1 0 0 0 0 0 0 0 0 0
Nghost:    2367 ave 2367 max 2367 min
Histogram: 1 0 0 0 0 0 0 0 0 0
Neighs:    11887 ave 11887 max 11887 min
Histogram: 1 0 0 0 0 0 0 0 0 0

Total # of neighbors = 11887
Ave neighs/atom = 2.97175
Ave special neighs/atom = 5.925
Neighbor list builds = 117
Dangerous builds = 0
shell          head -n 2 Temp.txt | tail -n 1 >> Tempfile.txt
next           myTempStr
jump           imdinput.txt loop2here

# specifies the run length in timesteps
run            2000
WARNING: Use special bonds = 0,1,1 with bond style fene (../bond_fene.cpp:187)
Memory usage per processor = 6.27542 Mbytes
Step Temp E_pair E_mol TotEng Press 
   58000   0.79809022   0.15807643    20.488027    21.842939  0.034452646 
   58100   0.81513317   0.16123223    20.482699    21.866325   0.36396837 
   58200   0.81880078   0.15568866    20.476679    21.860262  0.018886525 
   58300    0.7984486   0.14907328    20.509766    21.856213   0.20262846 
   58400   0.80432786   0.14917206     20.50264    21.858002    0.2094773 
   58500    0.8064105   0.15195613    20.520384    21.881653   0.19129519 
   58600   0.81634174   0.15448464    20.520529     21.89922   0.27230689 
   58700   0.82054915   0.15720553    20.539936    21.927657   0.13463771 
   58800   0.82311114    0.1620006    20.538175    21.934533   0.29497885 
   58900   0.83759146   0.16745392    20.530312    21.953839   0.15124721 
   59000   0.83948628   0.16416296    20.541458    21.964535   0.40211785 
   59100   0.83910567   0.15661317    20.547877    21.962834   0.35173706 
   59200   0.83894595   0.15949995    20.531552    21.949156 -0.094360232 
   59300   0.82853492   0.16209765    20.540682    21.945271  0.092336565 
   59400   0.82897723   0.16428724    20.533996    21.941438   0.17395019 
   59500   0.82787806   0.16434601      20.5269    21.932752  0.070555125 
   59600   0.82342135   0.15699967     20.52506    21.916883   0.26418963 
   59700   0.82342501   0.15739573    20.525263    21.917487   0.16088181 
   59800   0.83373781   0.16102094    20.507212    21.918527   0.48164463 
   59900   0.83726317   0.15964876    20.504165    21.919394  0.072896262 
   60000   0.83596067    0.1551927    20.497905    21.906725   0.24553746 
Loop time of 2.71797 on 1 procs for 2000 steps with 4000 atoms

Pair  time (%) = 0.809451 (29.7815)
Bond  time (%) = 0.331209 (12.1859)
Neigh time (%) = 0.432204 (15.9017)
Comm  time (%) = 0.0760221 (2.79702)
Outpt time (%) = 0.00079155 (0.0291228)
Other time (%) = 1.06829 (39.3047)

Nlocal:    4000 ave 4000 max 4000 min
Histogram: 1 0 0 0 0 0 0 0 0 0
Nghost:    2364 ave 2364 max 2364 min
Histogram: 1 0 0 0 0 0 0 0 0 0
Neighs:    12111 ave 12111 max 12111 min
Histogram: 1 0 0 0 0 0 0 0 0 0

Total # of neighbors = 12111
Ave neighs/atom = 3.02775
Ave special neighs/atom = 5.925
Neighbor list builds = 114
Dangerous builds = 0
shell          head -n 2 Temp.txt | tail -n 1 >> Tempfile.txt
next           myTempStr
jump           imdinput.txt loop2here

# specifies the run length in timesteps
run            2000
WARNING: Use special bonds = 0,1,1 with bond style fene (../bond_fene.cpp:187)
Memory usage per processor = 6.27542 Mbytes
Step Temp E_pair E_mol TotEng Press 
   60000   0.83596067    0.1551927    20.497905    21.906725   0.24553746 
   60100   0.81063599   0.16228776    20.486395    21.864333    0.2555554 
   60200    0.8113046   0.16714813    20.482776    21.866577    0.3432458 
   60300   0.80903209   0.16276829    20.487119    21.863132   0.30777878 
   60400   0.80351239   0.16233837    20.497869    21.865174   0.13194323 
   60500   0.79801968   0.16555201    20.511539    21.873821   0.25730739 
   60600   0.79966883   0.16516794    20.515187    21.879558   0.15746804 
   60700   0.80130804   0.16408075    20.519939    21.885682   0.31191189 
   60800   0.82025044   0.15824515    20.516939    21.905252   0.20874872 
   60900   0.81408227   0.15585154    20.520881    21.897551   0.22961328 
   61000    0.8355419   0.15212189    20.524483    21.929605   0.22164976 
   61100   0.82993472   0.14713013    20.556331    21.948052   0.17984918 
   61200   0.84346087   0.15302414    20.554271     21.97217  0.050844611 
   61300   0.85376158   0.15601698     20.57385    22.010189   0.19372294 
   61400   0.85128046   0.15388036    20.593914    22.024396  -0.13915279 
   61500   0.85793625   0.15448432    20.584133      22.0252   0.25468176 
   61600   0.85999898     0.155232    20.573707    22.018615   0.26267246 
   61700   0.84655392   0.16231918     20.59191    22.023743  0.099831311 
   61800   0.85561027   0.17088929    20.580141    22.034125   0.14788521 
   61900   0.87932027   0.17223371    20.567096     22.05798 0.0086808125 
   62000   0.86960199    0.1681379    20.577355     22.04957   0.02529807 
[...]
 2220100   0.79062519   0.16206888    20.480657    21.828367   0.12288289 
 2220200   0.79196776   0.15310287    20.492284    21.833041   0.20399593 
 2220300   0.80227268   0.15325502    20.478431    21.834794   0.20551273 
 2220400   0.80193948   0.15496326    20.472042    21.829614    0.2675546 
 2220500   0.78364552    0.1586976    20.481574    21.815446   0.27085386 
 2220600    0.7882646     0.161412    20.477275    21.820788   0.46753551 
 2220700   0.79784216   0.16095624     20.48007     21.83749   0.44016257 
 2220800    0.7858901   0.16164101    20.494008    21.834189   0.18415236 
 2220900   0.79705868   0.16356925    20.484927    21.843785   0.29008424 
 2221000   0.79846021   0.16389213    20.495977     21.85726   0.41527393 
 2221100    0.7985724   0.16417286    20.506878     21.86861   0.27639527 
 2221200   0.80961204   0.16470496    20.486965    21.865784   0.35066575 
 2221300   0.79575145   0.15920382    20.492828    21.845361   0.40358747 
 2221400   0.79751472   0.16082744    20.498242    21.855043   0.20284504 
 2221500   0.81383863   0.15809349    20.483953      21.8625   0.21712708 
 2221600   0.79051391   0.15766775    20.514103    21.857246   0.29013293 
 2221700   0.81204383   0.15293609    20.486809    21.857507   0.18343816 
 2221800   0.80657267   0.15455882    20.494678    21.858793   0.30649311 
 2221900   0.78689827   0.15952976    20.491553    21.831135 0.0018098986 
 2222000   0.78705333   0.16145514    20.492359    21.834099    0.3030823 
Loop time of 2.6445 on 1 procs for 2000 steps with 4000 atoms

Pair  time (%) = 0.802503 (30.3462)
Bond  time (%) = 0.327916 (12.4)
Neigh time (%) = 0.276101 (10.4406)
Comm  time (%) = 0.0681825 (2.57828)
Outpt time (%) = 0.000770807 (0.0291476)
Other time (%) = 1.16902 (44.2059)

Nlocal:    4000 ave 4000 max 4000 min
Histogram: 1 0 0 0 0 0 0 0 0 0
Nghost:    2407 ave 2407 max 2407 min
Histogram: 1 0 0 0 0 0 0 0 0 0
Neighs:    11808 ave 11808 max 11808 min
Histogram: 1 0 0 0 0 0 0 0 0 0

Total # of neighbors = 11808
Ave neighs/atom = 2.952
Ave special neighs/atom = 5.925
Neighbor list builds = 73
Dangerous builds = 0
shell          head -n 2 Temp.txt | tail -n 1 >> Tempfile.txt
next           myTempStr
jump           imdinput.txt loop2here

# specifies the run length in timesteps
run            2000
WARNING: Use special bonds = 0,1,1 with bond style fene (../bond_fene.cpp:187)
Memory usage per processor = 6.27542 Mbytes
Step Temp E_pair E_mol TotEng Press 
 2222000   0.78705333   0.16145514    20.492359    21.834099    0.3030823 
 2222100   0.79430644   0.15861134    20.479138    21.828912   0.44530027 
 2222200   0.81120869    0.1545855    20.471201    21.842295   0.25806814 
 2222300   0.80729451      0.15235    20.478927    21.841916   0.11923998 
 2222400   0.79566305   0.15524894    20.468366    21.816811   0.52018421 
 2222500   0.78315416   0.16294247    20.477426    21.814806    0.1070571 
 2222600   0.79283085   0.16584874    20.476812     21.83161   0.16443184 
 2222700   0.79995536   0.16299451    20.478101    21.840728   0.37022264 
 2222800   0.81392661   0.15527871    20.467858    21.843721   0.17710611 
 2222900   0.80214239   0.15402041    20.478814    21.835747   0.31698434 
 2223000   0.78081131   0.16108476    20.507836    21.839845   0.33488527 
 2223100   0.78879101   0.16666218    20.484444    21.833997   0.28978638 
 2223200   0.79505633   0.16478183    20.479434    21.836502   0.29336422 
 2223300   0.81469824   0.15929632    20.482934    21.863972   0.38225361 
 2223400   0.81231822   0.15976434    20.490477    21.868414   0.09483724 
 2223500    0.8139918   0.15940134    20.486417    21.866501   0.23361778 
 2223600   0.80723802   0.15795172    20.488384     21.85689   0.53364505 
 2223700   0.80142693   0.16025863    20.493926    21.856025   0.27999014 
 2223800   0.79175363   0.15906924    20.489462    21.835864    0.4563319 
 2223900   0.78387971   0.15430992    20.491856    21.821692   0.56792551 
 2224000   0.79472764   0.15206386    20.486278    21.830135   0.24437632 
Loop time of 2.60552 on 1 procs for 2000 steps with 4000 atoms

Pair  time (%) = 0.795503 (30.5315)
Bond  time (%) = 0.327566 (12.572)
Neigh time (%) = 0.279106 (10.7121)
Comm  time (%) = 0.0688193 (2.64129)
Outpt time (%) = 0.000880003 (0.0337746)
Other time (%) = 1.13364 (43.5093)

Nlocal:    4000 ave 4000 max 4000 min
Histogram: 1 0 0 0 0 0 0 0 0 0
Nghost:    2353 ave 2353 max 2353 min
Histogram: 1 0 0 0 0 0 0 0 0 0
Neighs:    11841 ave 11841 max 11841 min
Histogram: 1 0 0 0 0 0 0 0 0 0

Total # of neighbors = 11841
Ave neighs/atom = 2.96025
Ave special neighs/atom = 5.925
Neighbor list builds = 74
Dangerous builds = 0
shell          head -n 2 Temp.txt | tail -n 1 >> Tempfile.txt
next           myTempStr
jump           imdinput.txt loop2here

# specifies the run length in timesteps
run            2000
WARNING: Use special bonds = 0,1,1 with bond style fene (../bond_fene.cpp:187)
Memory usage per processor = 6.27542 Mbytes
Step Temp E_pair E_mol TotEng Press 
 2224000   0.79472764   0.15206386    20.486278    21.830135   0.24437632 
 2224100   0.78867409   0.15023577    20.484754    21.817705   0.46650485 
 2224200   0.78789616    0.1526161    20.496998    21.831163    0.4011388 
 2224300   0.78780798     0.150392    20.493957    21.825766   0.46791557 
 2224400   0.79346165   0.14827877    20.504277     21.84245   0.35303861 
 2224500   0.79233383   0.15270907    20.484957     21.82587    0.3335302 
 2224600   0.79323446   0.15749112    20.482107    21.829153   0.21188165 
 2224700   0.77962052   0.16200633    20.499193    21.830338     0.127156 
 2224800   0.78292042   0.16629266    20.497533    21.837912    0.3177702 
 2224900   0.78133837   0.16519125    20.499331    21.836237   0.40572617 
 2225000   0.79680852   0.15833412    20.483948    21.837196   0.42388265 
 2225100   0.79299442   0.15787465    20.502389    21.849457   0.45970096 
 2225200   0.78508661   0.16108598    20.505125    21.843546   0.58038226 
 2225300   0.78297063   0.15279197    20.506074    21.833028   0.22346352 
 2225400   0.78937476   0.14412557    20.502842    21.830734   0.53025778 
 2225500   0.80524765   0.15002936    20.487795    21.845394    0.4471279 
 2225600    0.7874796   0.15696925    20.498675    21.836569   0.23861683 
 2225700   0.78911471   0.15714148    20.492591    21.833109   0.65064179 
 2225800   0.80236585   0.15390454    20.492348      21.8495   0.31123984 
 2225900   0.79126615    0.1582034    20.498389    21.843195   0.47250782 
 2226000    0.7866948   0.16504258    20.497386    21.842175   0.30372966 
Loop time of 2.60286 on 1 procs for 2000 steps with 4000 atoms

Pair  time (%) = 0.804842 (30.9214)
Bond  time (%) = 0.32558 (12.5085)
Neigh time (%) = 0.275922 (10.6007)
Comm  time (%) = 0.067451 (2.59141)
Outpt time (%) = 0.000722647 (0.0277635)
Other time (%) = 1.12835 (43.3502)

Nlocal:    4000 ave 4000 max 4000 min
Histogram: 1 0 0 0 0 0 0 0 0 0
Nghost:    2327 ave 2327 max 2327 min
Histogram: 1 0 0 0 0 0 0 0 0 0
Neighs:    12173 ave 12173 max 12173 min
Histogram: 1 0 0 0 0 0 0 0 0 0

Total # of neighbors = 12173
Ave neighs/atom = 3.04325
Ave special neighs/atom = 5.925
Neighbor list builds = 73
Dangerous builds = 0
shell          head -n 2 Temp.txt | tail -n 1 >> Tempfile.txt
next           myTempStr
jump           imdinput.txt loop2here

# specifies the run length in timesteps
run            2000
WARNING: Use special bonds = 0,1,1 with bond style fene (../bond_fene.cpp:187)
Memory usage per processor = 6.27542 Mbytes
Step Temp E_pair E_mol TotEng Press 
 2226000    0.7866948   0.16504258    20.497386    21.842175   0.30372966 
 2226100   0.81079691   0.16396373    20.480234    21.860089   0.32428983 
 2226200   0.80231508   0.16313845    20.487724    21.854034   0.51077494 
 2226300   0.81717326   0.15747253    20.484296    21.867222    0.3363509 
 2226400   0.80774146   0.15365145    20.506982    21.871943   0.50431883 
 2226500   0.79269016   0.15601822    20.502652    21.847408   0.44449889 
 2226600   0.77988094   0.15882063    20.500863    21.829213   0.33939981 
 2226700   0.78573163    0.1582091    20.502432    21.838943   0.27878314 
 2226800   0.79220122   0.15347144    20.497967    21.839443   0.32165042 
 2226900   0.79078132     0.155092    20.499757    21.840724   0.14875786 
 2227000   0.80958977   0.15115701    20.494427    21.859665   0.35906267 
 2227100     0.811771   0.15001024    20.496687    21.864049   0.42716005 
 2227200   0.81243323   0.15449231    20.492772    21.865609    0.3122188 
 2227300   0.80440371   0.15404231    20.502972    21.863318   0.11854282 
 2227400   0.80082346   0.15301243    20.491748    21.845696   0.33226275 
 2227500   0.78973753   0.15855257    20.480044    21.822907   0.10623844 
 2227600   0.79062069   0.15990249    20.474693     21.82023   0.39762319 
 2227700   0.79647869   0.15938542    20.468513    21.822318   0.55433704 
 2227800    0.7878661    0.1548605    20.482805    21.819169  0.084345102 
 2227900    0.7938632   0.15091577    20.491927     21.83334   0.43707455 
 2228000   0.79125945   0.15025115    20.483597     21.82044   0.30525873 
Loop time of 2.62093 on 1 procs for 2000 steps with 4000 atoms

Pair  time (%) = 0.800834 (30.5553)
Bond  time (%) = 0.328152 (12.5205)
Neigh time (%) = 0.277019 (10.5695)
Comm  time (%) = 0.0675683 (2.57803)
Outpt time (%) = 0.000800848 (0.0305559)
Other time (%) = 1.14655 (43.7461)

Nlocal:    4000 ave 4000 max 4000 min
Histogram: 1 0 0 0 0 0 0 0 0 0
Nghost:    2368 ave 2368 max 2368 min
Histogram: 1 0 0 0 0 0 0 0 0 0
Neighs:    11857 ave 11857 max 11857 min
Histogram: 1 0 0 0 0 0 0 0 0 0

Total # of neighbors = 11857
Ave neighs/atom = 2.96425
Ave special neighs/atom = 5.925
Neighbor list builds = 73
Dangerous builds = 0
shell          head -n 2 Temp.txt | tail -n 1 >> Tempfile.txt
next           myTempStr
jump           imdinput.txt loop2here

# specifies the run length in timesteps
run            2000
WARNING: Use special bonds = 0,1,1 with bond style fene (../bond_fene.cpp:187)
Memory usage per processor = 6.27542 Mbytes
Step Temp E_pair E_mol TotEng Press 
 2228000   0.79125945   0.15025115    20.483597     21.82044   0.30525873 
 2228100   0.79253444   0.15328615    20.487086    21.828876   0.38733383 
 2228200   0.79229756   0.16125156    20.488368    21.837769   0.40906609 
 2228300   0.79006661   0.15998174    20.473199    21.817984   0.44497509 
 2228400   0.78789693   0.15671699    20.489044    21.827311   0.17278454 
 2228500   0.79159956   0.16295527    20.491526    21.841584   0.39284532 
 2228600    0.7877832   0.16409146    20.494291    21.839762   0.20957117 
 2228700    0.7817123   0.16265206    20.497816    21.832743   0.33267736 
 2228800     0.784488    0.1658371    20.489106     21.83138   0.23112087 
 2228900   0.78288594   0.16120219    20.480172     21.81541   0.40170109 
 2229000   0.79948541   0.15197518    20.485672    21.836576   0.21900729 
 2229100   0.79006621    0.1545046    20.492665    21.831972    0.3531394 
 2229200   0.80585732   0.15337465    20.486454    21.848312   0.39055205 
 2229300   0.80406393   0.14831213    20.485575    21.839681   0.23543383 
 2229400   0.80889391   0.15129646    20.488208    21.852542   0.13434796 
 2229500   0.79192524   0.16197579    20.502767    21.852334   0.26077374 
 2229600    0.8068187   0.16382097    20.479648    21.853394   0.26769772 
 2229700   0.81074611   0.16091474    20.478893    21.855623   0.29333443 
 2229800     0.815538   0.16538811    20.481845    21.870235  0.085833978 
 2229900   0.81279985   0.16404004    20.488967    21.871902   0.21686529 
 2230000   0.81830952   0.15863827     20.48185    21.867646    0.2251397 
Loop time of 2.6203 on 1 procs for 2000 steps with 4000 atoms

Pair  time (%) = 0.802372 (30.6214)
Bond  time (%) = 0.327381 (12.494)
Neigh time (%) = 0.2747 (10.4835)
Comm  time (%) = 0.0664215 (2.53489)
Outpt time (%) = 0.000789881 (0.0301447)
Other time (%) = 1.14863 (43.836)

Nlocal:    4000 ave 4000 max 4000 min
Histogram: 1 0 0 0 0 0 0 0 0 0
Nghost:    2251 ave 2251 max 2251 min
Histogram: 1 0 0 0 0 0 0 0 0 0
Neighs:    11926 ave 11926 max 11926 min
Histogram: 1 0 0 0 0 0 0 0 0 0

Total # of neighbors = 11926
Ave neighs/atom = 2.9815
Ave special neighs/atom = 5.925
Neighbor list builds = 73
Dangerous builds = 0
shell          head -n 2 Temp.txt | tail -n 1 >> Tempfile.txt
next           myTempStr
jump           imdinput.txt loop2here

# specifies the run length in timesteps
run            2000
WARNING: Use special bonds = 0,1,1 with bond style fene (../bond_fene.cpp:187)
Memory usage per processor = 6.27542 Mbytes
Step Temp E_pair E_mol TotEng Press 
 2230000   0.81830952   0.15863827     20.48185    21.867646    0.2251397 
 2230100   0.81508094   0.14670103    20.491702    21.860719   0.25157185 
 2230200   0.80548294   0.15025296    20.492122    21.850297   0.31840741 
 2230300   0.79599577   0.15623016    20.490939    21.840865   0.35030073 
 2230400    0.7870079    0.1591039    20.491789     21.83111   0.25100761 
 2230500   0.80160985   0.16052668    20.496983    21.859624   0.55126403 
 2230600   0.81106281   0.16507205    20.494585    21.875947   0.32546191 
 2230700   0.80542233   0.16924602    20.488002     21.86508      0.37208 
 2230800   0.78970693   0.16929382    20.508546    21.862104   0.36668369 
 2230900   0.80811223   0.16569888    20.478423    21.855987   0.41343044 
 2231000   0.80430713   0.17065207    20.493843    21.870655   0.22115157 
 2231100    0.8021904   0.16690179    20.485983     21.85587   0.53241138 
 2231200   0.79622505    0.1636039    20.488398    21.846041   0.30377908 
 2231300   0.80185943   0.16134107    20.490509    21.854339   0.76211554 
 2231400   0.79879003   0.15973492    20.485731    21.843352   0.47201687 
 2231500   0.80164946   0.15968408    20.477432    21.839289   0.51857319 
 2231600   0.79578655    0.1596184    20.500105    21.853105   0.29424382 
 2231700   0.79336856   0.16037396    20.494782    21.844911   0.26507882 
 2231800   0.79457938   0.16110957    20.494628    21.847309   0.26841434 
 2231900   0.80061436   0.16364707    20.487631      21.8519   0.30312046 
 2232000    0.7968772   0.16025008    20.494511    21.849778   0.34403547 
Loop time of 2.62819 on 1 procs for 2000 steps with 4000 atoms

Pair  time (%) = 0.808124 (30.7483)
Bond  time (%) = 0.325474 (12.3839)
Neigh time (%) = 0.283435 (10.7844)
Comm  time (%) = 0.067136 (2.55446)
Outpt time (%) = 0.000832558 (0.0316779)
Other time (%) = 1.14319 (43.4973)

Nlocal:    4000 ave 4000 max 4000 min
Histogram: 1 0 0 0 0 0 0 0 0 0
Nghost:    2377 ave 2377 max 2377 min
Histogram: 1 0 0 0 0 0 0 0 0 0
Neighs:    11973 ave 11973 max 11973 min
Histogram: 1 0 0 0 0 0 0 0 0 0

Total # of neighbors = 11973
Ave neighs/atom = 2.99325
Ave special neighs/atom = 5.925
Neighbor list builds = 75
Dangerous builds = 0
shell          head -n 2 Temp.txt | tail -n 1 >> Tempfile.txt
next           myTempStr
jump           imdinput.txt loop2here

# specifies the run length in timesteps
run            2000
WARNING: Use special bonds = 0,1,1 with bond style fene (../bond_fene.cpp:187)
Memory usage per processor = 6.27542 Mbytes
Step Temp E_pair E_mol TotEng Press 
 2232000    0.7968772   0.16025008    20.494511    21.849778   0.34403547 
 2232100   0.80305396   0.16435916    20.485901     21.85454   0.18846469 
 2232200   0.80158238   0.16790149    20.498383    21.868358   0.17372162 
 2232300   0.78796476   0.16694762    20.518926    21.867526   0.26093732 
 2232400    0.8054571   0.16564553    20.497484    21.871014   0.22101087 
 2232500   0.81004599   0.16419697    20.502589    21.881551   0.21441483 
 2232600   0.82245575   0.16229776    20.485328    21.881001   0.31404649 
 2232700   0.81210755   0.16440645    20.477299    21.859562   0.40953064 
 2232800    0.8158882   0.15855879    20.485898    21.867983   0.40354131 
 2232900   0.81048093   0.16364431    20.491086    21.870148   0.38487762 
 2233000   0.81954255    0.1676937    20.485043    21.881744   0.39259339 
 2233100   0.81334607   0.16292498     20.49103    21.873669   0.45693308 
 2233200   0.81172335   0.15891789    20.490423    21.866622   0.22936474 
 2233300   0.80803515   0.16056252    20.485483    21.857795   0.27038328 
 2233400   0.80096446   0.16116302    20.497386    21.859695   0.24003128 
 2233500   0.81085998   0.15660089    20.494621    21.867208   0.29210236 
 2233600    0.8125409   0.15866254    20.486042    21.863211   0.41545117 
 2233700   0.79502413   0.16033553    20.504454    21.857028   0.42205181 
 2233800   0.79886175   0.16152901    20.489336    21.848858   0.46505494 
 2233900    0.7951072   0.15584315    20.494814     21.84302   0.28073491 
 2234000   0.78798818   0.15653122    20.502395    21.840613   0.24740762 
Loop time of 2.62486 on 1 procs for 2000 steps with 4000 atoms

Pair  time (%) = 0.806753 (30.7351)
Bond  time (%) = 0.32621 (12.4277)
Neigh time (%) = 0.278405 (10.6065)
Comm  time (%) = 0.0683706 (2.60474)
Outpt time (%) = 0.00080204 (0.0305556)
Other time (%) = 1.14431 (43.5953)

Nlocal:    4000 ave 4000 max 4000 min
Histogram: 1 0 0 0 0 0 0 0 0 0
Nghost:    2387 ave 2387 max 2387 min
Histogram: 1 0 0 0 0 0 0 0 0 0
Neighs:    11967 ave 11967 max 11967 min
Histogram: 1 0 0 0 0 0 0 0 0 0

Total # of neighbors = 11967
Ave neighs/atom = 2.99175
Ave special neighs/atom = 5.925
Neighbor list builds = 74
Dangerous builds = 0
shell          head -n 2 Temp.txt | tail -n 1 >> Tempfile.txt
next           myTempStr
jump           imdinput.txt loop2here

# specifies the run length in timesteps
run            2000
WARNING: Use special bonds = 0,1,1 with bond style fene (../bond_fene.cpp:187)
Memory usage per processor = 6.27542 Mbytes
Step Temp E_pair E_mol TotEng Press 
 2234000   0.78798818   0.15653122    20.502395    21.840613   0.24740762 
 2234100   0.79763178   0.16192476    20.501571    21.859644   0.45921053 
 2234200   0.79979055    0.1584747    20.507447    21.865307   0.34565391 
 2234300   0.82003372   0.15586894     20.48495    21.870562   0.38808463 
 2234400   0.81749052   0.15809276    20.500102    21.884124   0.29484592 
 2234500   0.82012193   0.16140259    20.487882     21.87916   0.37942804 
 2234600   0.79628848   0.15714983    20.496129    21.847413   0.47125522 
 2234700   0.78263117     0.160985    20.504349    21.838987   0.18527656 
 2234800   0.78573518   0.17054804    20.488474     21.83733   0.42665978 
 2234900   0.79947638   0.16988152    20.491833    21.860629   0.20392631 
 2235000   0.79411433   0.16406754    20.490094    21.845036   0.32211426 
 2235100   0.81087088   0.16280301    20.489576    21.868382   0.34188321 
 2235200   0.80686658   0.16492027     20.48702    21.861937   0.36696115 
 2235300   0.79848451   0.16980304    20.495632    21.862863   0.18200607 
 2235400    0.8083141   0.16678629    20.486877    21.865831   0.23644224 
 2235500   0.81736578   0.16258244    20.489728    21.878053   0.29063682 
 2235600   0.81208053   0.16188579    20.489481    21.869183   0.70012782 
 2235700   0.81073552   0.16613295    20.485253    21.867185   0.23332286 
 2235800   0.81102153   0.17052326    20.477458    21.864209   0.39788588 
 2235900   0.80298483   0.16561511     20.49101    21.860801   0.29992709 
 2236000   0.81630514   0.15992144    20.490039    21.874112   0.21125991 
Loop time of 2.67229 on 1 procs for 2000 steps with 4000 atoms

Pair  time (%) = 0.824476 (30.8528)
Bond  time (%) = 0.330335 (12.3615)
Neigh time (%) = 0.289597 (10.837)
Comm  time (%) = 0.0701492 (2.62506)
Outpt time (%) = 0.00084424 (0.0315924)
Other time (%) = 1.15689 (43.292)

Nlocal:    4000 ave 4000 max 4000 min
Histogram: 1 0 0 0 0 0 0 0 0 0
Nghost:    2446 ave 2446 max 2446 min
Histogram: 1 0 0 0 0 0 0 0 0 0
Neighs:    12102 ave 12102 max 12102 min
Histogram: 1 0 0 0 0 0 0 0 0 0

Total # of neighbors = 12102
Ave neighs/atom = 3.0255
Ave special neighs/atom = 5.925
Neighbor list builds = 76
Dangerous builds = 0
