ITEM: TIMESTEP
0
ITEM: NUMBER OF ATOMS
4000
ITEM: BOX BOUNDS pp pp pp
-8.37884 8.37884
-8.37884 8.37884
-8.37884 8.37884
ITEM: ATOMS id type xs ys zs ix iy iz 
785 1 0.106371 0.00431659 0.00768222 0 0 1 
784 1 0.103978 0.0528018 0.0392081 0 0 1 
3358 1 0.118276 0.059175 0.0280967 1 1 1 
3416 1 0.177467 0.0541385 0.0124323 0 1 1 
3407 1 0.254888 0.0807353 0.0325425 0 1 1 
3409 1 0.266036 0.0837847 0.00488947 0 1 1 
2468 1 0.422525 0.083534 0.0282877 0 1 0 
879 1 0.00239509 0.121373 0.00406596 0 0 1 
1339 1 0.0234959 0.130402 0.0288964 0 0 0 
1342 1 0.0700716 0.130211 0.0292365 0 0 0 
3360 1 0.0817856 0.130319 0.0283474 1 1 1 
782 1 0.166219 0.102898 0.0229051 0 0 1 
3406 1 0.266429 0.132902 0.010278 0 1 1 
3408 1 0.301333 0.114714 0.0387665 0 1 1 
2128 1 0.673282 0.0997654 0.0211387 0 1 0 
3039 1 0.855061 0.0918944 0.0132438 0 1 0 
1340 1 0.981344 0.0939173 0.0133155 -1 0 0 
76 2 0.122871 0.161749 0.0213655 1 1 0 
3404 1 0.221143 0.177491 0.0217295 0 1 1 
3386 1 0.347556 0.137885 0.00845201 0 1 1 
1323 1 0.0435762 0.216476 0.0153324 0 0 0 
1331 1 0.03373 0.187295 0.00914423 0 0 0 
762 1 0.0893344 0.197947 0.0123487 0 0 1 
1322 1 0.0901042 0.182384 0.020184 0 0 0 
1324 1 0.0906174 0.184186 0.00556975 0 0 0 
1344 1 0.104372 0.185833 0.0335152 0 0 0 
1346 1 0.122752 0.199696 0.00879216 0 0 0 
2809 1 0.132336 0.18436 0.0268973 1 1 0 
3394 1 0.267432 0.203061 0.0399361 0 1 1 
3393 1 0.312677 0.207967 0.00417338 0 1 1 
3041 1 0.985139 0.183703 0.0343387 0 0 0 
3048 1 0.0333003 0.260205 0.0107793 1 0 0 
1325 1 0.0748753 0.234742 0.028962 0 0 0 
1327 1 0.0754124 0.227355 0.00833863 0 0 0 
1333 1 0.0772145 0.270571 0.0338971 0 0 0 
1336 1 0.0601119 0.229133 0.0433674 0 0 0 
758 1 0.106359 0.250371 0.0147238 0 0 1 
760 1 0.109224 0.261262 0.0114119 0 0 1 
3403 1 0.239498 0.229837 0.0382593 0 1 1 
537 1 0.518433 0.248527 0.0317846 0 0 0 
2882 1 0.857353 0.254166 0.0151773 0 0 0 
1494 1 0.899632 0.270475 0.0141986 0 0 1 
2884 1 0.921699 0.260695 0.000586959 0 0 0 
1328 1 0.0646472 0.284212 0.0096813 0 0 0 
2811 1 0.0830268 0.273936 0.0177612 1 1 0 
1326 1 0.0976231 0.280375 0.00157158 0 0 0 
2827 1 0.129364 0.316955 0.00514606 1 1 0 
3055 1 0.194635 0.306542 0.00138659 1 0 0 
2885 1 0.884415 0.286414 0.0366242 0 0 0 
373 1 0.0565494 0.361884 0.0242239 0 0 0 
2812 1 0.0639072 0.321515 0.0446205 1 1 0 
2826 1 0.166577 0.344388 0.0399779 1 1 0 
2828 1 0.169542 0.338737 0.0406701 1 1 0 
3056 1 0.219973 0.335472 0.0446504 1 0 0 
2887 1 0.871812 0.351071 0.00533702 0 0 0 
372 1 0.0185608 0.405243 0.0294573 0 0 0 
1669 1 0.0575817 0.402743 0.0130231 0 0 0 
1672 1 0.0806398 0.38249 0.00297989 0 0 0 
2817 1 0.0484814 0.370489 0.0453127 1 1 0 
2829 1 0.12746 0.376081 0.0270584 1 1 0 
3849 1 0.128666 0.405035 0.0140554 0 0 1 
2825 1 0.200603 0.390032 0.029511 1 1 0 
2836 1 0.278442 0.407815 0.0227261 1 1 0 
3870 1 0.297388 0.368753 0.0396735 0 0 1 
1668 1 0.014324 0.439777 0.00265168 0 0 0 
1606 1 0.0816364 0.441758 0.0201541 0 0 0 
1670 1 0.0867564 0.445255 0.0393334 0 0 0 
1673 1 0.0792196 0.436942 0.0225709 0 0 0 
1675 1 0.0661271 0.419452 0.0258232 0 0 0 
2818 1 0.0906711 0.410119 0.0452292 1 1 0 
3850 1 0.0904204 0.441824 0.0371732 0 0 1 
1607 1 0.135445 0.450518 0.000706307 0 0 0 
1671 1 0.123522 0.421343 0.00155965 0 0 0 
1608 1 0.171691 0.433708 0.0425976 0 0 0 
403 1 0.19346 0.454164 0.0249758 0 0 0 
438 1 0.202447 0.444449 0.0336703 0 0 0 
2831 1 0.18211 0.423044 0.00959776 1 1 0 
2834 1 0.212496 0.439831 0.0205599 1 1 0 
3843 1 0.211959 0.412213 0.0281266 0 0 1 
1610 1 0.230297 0.445953 0.0351622 0 0 0 
1308 1 0.351799 0.453574 0.0257695 0 0 0 
1667 1 0.966682 0.411515 0.019444 -1 0 0 
1665 1 0.0400017 0.465658 0.0151355 0 0 0 
2381 1 0.0017327 0.461982 0.0253577 1 0 0 
2383 1 0.0300839 0.486233 0.0296662 1 0 0 
439 1 0.222348 0.489855 0.00379743 0 0 0 
2398 1 0.221399 0.475152 0.0276731 1 0 0 
411 1 0.249005 0.487015 0.0407536 0 0 0 
2373 1 0.863529 0.48461 0.0290277 0 0 0 
1687 1 0.895144 0.488107 0.0272136 -1 0 0 
1689 1 0.929188 0.485559 0.0238181 -1 0 0 
1658 1 0.993243 0.483351 0.0318323 -1 0 0 
1660 1 0.0766357 0.509255 0.0377819 0 0 0 
1664 1 0.0464048 0.522014 0.0266705 0 0 0 
2386 1 0.0471388 0.527558 0.0307403 1 0 0 
3901 1 0.133231 0.519669 0.00983049 0 0 1 
3875 1 0.16891 0.502793 0.0376327 0 0 1 
427 1 0.245991 0.506588 0.0442505 0 0 0 
2399 1 0.255748 0.521727 0.0265273 1 0 0 
412 1 0.276854 0.537183 0.0331153 0 0 0 
159 2 0.476673 0.539009 0.03373 1 1 0 
157 2 0.502608 0.538824 0.00151788 1 1 0 
2000 1 0.581581 0.534975 0.0430809 0 1 0 
2377 1 0.841068 0.538979 0.0248982 0 0 0 
1686 1 0.950021 0.501802 0.0149207 -1 0 0 
2374 1 0.914956 0.500704 0.00788511 0 0 0 
2379 1 0.937889 0.519961 0.0250832 0 0 0 
1692 1 0.982746 0.512621 0.0173912 -1 0 0 
2380 1 0.993464 0.516936 0.00917407 0 0 0 
2390 1 0.069069 0.571066 0.0215147 1 0 0 
2392 1 0.0716469 0.566787 0.0181849 1 0 0 
2394 1 0.146186 0.559829 0.0346311 1 0 0 
3896 1 0.177801 0.575034 0.0266347 0 0 1 
3899 1 0.147397 0.577189 0.0290098 0 0 1 
3903 1 0.199063 0.56841 0.0155473 0 0 1 
1305 1 0.357826 0.562843 0.0322739 0 0 0 
2001 1 0.617075 0.577033 0.0251309 0 1 0 
2002 1 0.674541 0.579319 0.0316712 0 1 0 
2004 1 0.757542 0.581676 0.0100931 0 1 0 
3179 1 0.890848 0.564723 0.0403419 1 0 0 
1694 1 0.0263006 0.601237 0.0152549 0 0 0 
2962 1 0.0201541 0.614676 0.00602327 1 0 0 
2389 1 0.0665687 0.627285 0.0350727 1 0 0 
3882 1 0.237828 0.617045 0.0230722 0 0 1 
1304 1 0.338408 0.612319 0.00934713 0 0 0 
3889 1 0.328294 0.623317 0.0382175 0 0 1 
1303 1 0.389281 0.634535 0.0257516 0 0 0 
953 1 0.624092 0.626646 0.0366242 -1 -1 1 
2013 1 0.694102 0.624618 0.0163767 0 1 0 
1291 1 0.449778 0.643075 0.0418516 0 0 0 
955 1 0.588909 0.673652 0.0367495 -1 -1 1 
957 1 0.584767 0.667905 0.0358425 -1 -1 1 
3018 1 0.746508 0.664677 0.0327155 0 0 0 
2009 1 0.788077 0.655702 0.00581441 0 1 0 
2990 1 0.796205 0.671927 0.0263244 0 0 0 
3906 1 0.212281 0.707797 0.00278894 0 0 1 
3831 1 0.274891 0.722788 0.0354486 1 0 0 
3446 1 0.367523 0.713824 0.0291828 0 0 1 
3448 1 0.380043 0.725121 0.0348817 0 0 1 
3456 1 0.442629 0.72123 0.0336285 0 0 1 
946 1 0.592137 0.68533 0.00793882 -1 -1 1 
958 1 0.622404 0.705768 0.0134706 -1 -1 1 
1204 1 0.639178 0.691554 0.00342745 0 0 1 
3017 1 0.713604 0.711282 0.0425081 0 0 0 
1207 1 0.746037 0.722507 0.0423648 0 0 1 
2982 1 0.901279 0.695845 0.013578 0 0 0 
2985 1 0.935973 0.700857 0.0113044 0 0 0 
3833 1 0.244511 0.731076 0.012856 1 0 0 
3445 1 0.318101 0.743751 0.0327394 0 0 1 
3457 1 0.389758 0.7303 0.0118773 0 0 1 
3480 1 0.37762 0.766839 0.0149744 0 0 1 
3449 1 0.433457 0.745798 0.0265213 0 0 1 
2068 1 0.501981 0.746168 0.0303942 0 1 0 
942 1 0.573161 0.766123 0.0193724 -1 -1 1 
927 1 0.61171 0.769304 0.028604 -1 -1 1 
944 1 0.604478 0.758097 0.0247908 -1 -1 1 
960 1 0.643534 0.729125 0.0147238 -1 -1 1 
922 1 0.705739 0.741513 0.0376804 -1 -1 1 
3021 1 0.704682 0.73807 0.0355978 0 0 0 
2992 1 0.760424 0.728266 0.0268376 0 0 0 
2988 1 0.847811 0.738309 0.0102243 0 0 0 
2983 1 0.938522 0.735761 0.0328289 0 0 0 
3494 1 0.204923 0.779788 0.00701387 0 0 1 
939 1 0.616633 0.815939 0.000539219 -1 -1 1 
932 1 0.638671 0.792374 0.0198915 -1 -1 1 
1210 1 0.721182 0.784091 0.0156368 0 0 1 
908 1 0.771207 0.788202 0.0124502 -1 -1 1 
911 1 0.751879 0.81178 0.0363019 -1 -1 1 
1209 1 0.771977 0.803371 0.0356157 0 0 1 
3008 1 0.731393 0.806934 0.044895 0 0 0 
906 1 0.801498 0.798789 0.0244089 -1 -1 1 
2995 1 0.78452 0.788095 0.0324291 0 0 0 
3496 1 0.144366 0.852263 0.0401867 0 0 1 
3492 1 0.184049 0.856738 0.0125755 0 0 1 
3442 1 0.288145 0.860342 0.00679307 0 0 1 
3489 1 0.297782 0.851863 0.000461643 0 0 1 
3438 1 0.326647 0.847178 0.0450024 0 0 1 
3441 1 0.332131 0.827396 0.0249639 0 0 1 
940 1 0.573519 0.85231 0.0135601 -1 -1 1 
1227 1 0.589863 0.846092 0.0269749 0 0 1 
933 1 0.655207 0.843377 0.0416965 -1 -1 1 
3028 1 0.676624 0.836115 0.0316056 0 0 0 
3029 1 0.725288 0.821214 0.00403613 0 0 0 
907 1 0.761719 0.836729 0.0425439 -1 -1 1 
3030 1 0.729793 0.862455 0.0444057 0 0 0 
3032 1 0.761033 0.848772 0.0217176 0 0 0 
909 1 0.779687 0.838734 0.0393752 -1 -1 1 
3491 1 0.211141 0.904185 0.0316891 0 0 1 
3497 1 0.185296 0.868953 0.0028128 0 0 1 
3423 1 0.259274 0.887966 0.0101826 0 0 1 
3490 1 0.263619 0.897967 0.00807607 0 0 1 
3430 1 0.296004 0.90067 0.00595763 0 0 1 
1238 1 0.528924 0.878615 0.0103497 0 0 1 
934 1 0.697629 0.878167 0.0232452 -1 -1 1 
3033 1 0.739878 0.90107 0.0346848 0 0 0 
3435 1 0.300032 0.945486 0.0327096 0 0 1 
2323 1 0.825731 0.94314 0.0227798 0 0 0 
1723 1 0.936063 0.938211 0.0120384 -1 0 0 
3354 1 0.194892 0.997814 0.00218623 1 0 1 
3433 1 0.236598 0.985402 0.0032723 0 0 1 
2322 1 0.789772 0.987007 0.0342909 0 0 0 
1729 1 0.950981 0.976486 0.0453724 -1 0 0 
2321 1 0.75303 0.00684678 0.07438 0 1 0 
3037 1 0.785636 0.0261454 0.0720229 0 1 0 
1728 1 0.967601 0.0169795 0.0832536 -1 1 0 
2797 1 0.0735506 0.0687169 0.080604 1 1 0 
783 1 0.154254 0.0651365 0.0651126 0 0 1 
2795 1 0.17138 0.0510892 0.0854794 1 1 0 
2802 1 0.179174 0.0855272 0.0822093 1 1 0 
2467 1 0.44766 0.0475684 0.0660435 0 1 0 
3038 1 0.831371 0.0539237 0.0499494 0 1 0 
1343 1 0.125145 0.133457 0.0467688 0 0 0 
3359 1 0.109254 0.0993358 0.0688005 1 1 1 
2466 1 0.433147 0.100601 0.0841487 0 1 0 
2469 1 0.425843 0.115501 0.0764328 0 1 0 
2129 1 0.688487 0.120604 0.0729538 0 1 0 
1338 1 0.00102258 0.177079 0.0547234 0 0 0 
75 2 0.121254 0.172484 0.078223 1 1 0 
2808 1 0.141579 0.158723 0.0779664 1 1 0 
2258 1 0.513057 0.139132 0.084095 0 1 0 
2102 1 0.653196 0.177598 0.0713963 0 1 0 
2127 1 0.665321 0.144044 0.0575638 0 1 0 
2130 1 0.648422 0.160335 0.0858852 0 1 0 
2125 1 0.730205 0.142785 0.0747798 0 1 0 
2310 1 0.847226 0.164852 0.0885288 0 1 0 
1332 1 0.0453426 0.225427 0.051119 0 0 0 
1337 1 0.0396616 0.201731 0.0900743 0 0 0 
1334 1 0.049848 0.225338 0.0574624 0 0 0 
1335 1 0.0962566 0.193681 0.0714202 0 0 0 
1345 1 0.145452 0.217771 0.0588767 0 0 0 
2807 1 0.154141 0.215187 0.0759137 1 1 0 
3402 1 0.264687 0.226973 0.0902951 0 1 1 
3401 1 0.315702 0.204368 0.0749052 0 1 1 
535 1 0.506361 0.224258 0.0487798 0 0 0 
2131 1 0.595425 0.183142 0.0905159 0 1 0 
533 1 0.447326 0.271848 0.0878485 0 0 0 
2881 1 0.816935 0.277797 0.0492095 0 0 0 
3868 1 0.210813 0.339369 0.0627376 0 0 1 
3869 1 0.266191 0.340664 0.0795299 0 0 1 
2886 1 0.877529 0.338229 0.0614904 0 0 0 
371 1 0.0556722 0.376815 0.0635909 0 0 0 
2819 1 0.123319 0.381093 0.0832058 1 1 0 
2823 1 0.0996282 0.366008 0.0707578 1 1 0 
437 1 0.172842 0.408191 0.0677204 0 0 0 
2821 1 0.145768 0.406497 0.0764328 1 1 0 
2824 1 0.156498 0.373825 0.0633105 1 1 0 
3057 1 0.258188 0.376319 0.0595391 1 0 0 
3060 1 0.282285 0.37136 0.0818632 1 0 0 
370 1 0.0506655 0.4278 0.0905398 0 0 0 
1605 1 0.083916 0.443017 0.0779784 0 0 0 
2382 1 0.0475804 0.433702 0.046542 1 0 0 
2816 1 0.0826688 0.409158 0.0715157 1 1 0 
3851 1 0.121827 0.429513 0.0842143 0 0 1 
1616 1 0.166785 0.40914 0.072196 0 0 0 
2830 1 0.142922 0.425926 0.0520977 1 1 0 
408 1 0.210771 0.433971 0.0541445 0 0 0 
1609 1 0.212102 0.409182 0.0760032 0 0 0 
1615 1 0.202494 0.451783 0.0882364 0 0 0 
431 1 0.228554 0.419309 0.0865177 0 0 0 
3871 1 0.27038 0.409313 0.070913 0 0 1 
430 1 0.279892 0.43517 0.0649933 0 0 0 
1653 1 0.892393 0.430199 0.0736401 -1 0 0 
1655 1 0.877827 0.420556 0.0607206 -1 0 0 
369 1 0.014306 0.46558 0.0660137 0 0 0 
1659 1 0.0392081 0.475372 0.0660913 0 0 0 
2384 1 0.0661927 0.457781 0.0648381 1 0 0 
407 1 0.1732 0.468462 0.081529 0 0 0 
428 1 0.221083 0.469053 0.080604 0 0 0 
2400 1 0.222366 0.493239 0.0642772 1 0 0 
3874 1 0.213212 0.486925 0.0713366 0 0 1 
404 1 0.231514 0.474835 0.0633821 0 0 0 
409 1 0.237786 0.484622 0.0615919 0 0 0 
1614 1 0.237088 0.473463 0.0471984 0 0 0 
410 1 0.286689 0.455095 0.0709428 0 0 0 
1307 1 0.328807 0.476178 0.073843 0 0 0 
1998 1 0.51934 0.467531 0.0784379 0 1 0 
1654 1 0.843938 0.457554 0.089585 -1 0 0 
1657 1 0.938557 0.483637 0.0508028 -1 0 0 
368 1 0.0301257 0.517717 0.085563 0 0 0 
2385 1 0.0324589 0.502101 0.08061 1 0 0 
1663 1 0.0761583 0.50185 0.0720408 0 0 0 
1661 1 0.121391 0.544069 0.0494303 0 0 0 
2393 1 0.0989777 0.539928 0.0615739 1 0 0 
425 1 0.148961 0.524287 0.0867385 0 0 0 
2395 1 0.170658 0.533758 0.0801505 1 0 0 
406 1 0.214274 0.507698 0.0704057 0 0 0 
423 1 0.197786 0.516202 0.0756809 0 0 0 
426 1 0.203193 0.535775 0.0700835 0 0 0 
2397 1 0.217634 0.507459 0.0755496 1 0 0 
405 1 0.27106 0.513755 0.079882 0 0 0 
414 1 0.358656 0.543759 0.0743323 0 0 0 
418 1 0.326229 0.508014 0.0881648 0 0 0 
1306 1 0.3659 0.520522 0.0709249 0 0 0 
1997 1 0.528799 0.523762 0.0884035 0 1 0 
1999 1 0.529479 0.522981 0.0652678 0 1 0 
2372 1 0.86847 0.527301 0.0678039 0 0 0 
2378 1 0.887924 0.521847 0.05424 0 0 0 
1690 1 0.958142 0.501528 0.0713307 -1 0 0 
2387 1 0.0416428 0.58284 0.0470015 1 0 0 
3898 1 0.177467 0.564048 0.0766894 0 0 1 
422 1 0.211356 0.572427 0.078044 0 0 0 
2396 1 0.219442 0.564412 0.085748 1 0 0 
413 1 0.317618 0.575315 0.0484337 0 0 0 
160 2 0.427383 0.546844 0.0630479 1 1 0 
948 1 0.569192 0.589398 0.0497823 -1 -1 1 
951 1 0.554059 0.571806 0.0818453 -1 -1 1 
950 1 0.608547 0.588962 0.0725122 -1 -1 1 
952 1 0.601004 0.574825 0.0481174 -1 -1 1 
2369 1 0.764112 0.587673 0.0801983 0 0 0 
2371 1 0.861458 0.580268 0.0900743 0 0 0 
1691 1 0.97148 0.555366 0.0547651 -1 0 0 
1693 1 0.998745 0.56048 0.0457484 -1 0 0 
2388 1 0.026766 0.630054 0.0770117 1 0 0 
3897 1 0.13634 0.600312 0.0581427 0 0 1 
3895 1 0.1934 0.607061 0.0722616 0 0 1 
1292 1 0.413174 0.604573 0.0648441 0 0 0 
949 1 0.574056 0.632912 0.0876456 -1 -1 1 
954 1 0.573381 0.625286 0.064504 -1 -1 1 
2003 1 0.722 0.608768 0.0468762 0 1 0 
2012 1 0.725562 0.632554 0.064313 0 1 0 
2014 1 0.709176 0.609997 0.0703162 0 1 0 
2010 1 0.803926 0.622195 0.0502776 0 1 0 
3178 1 0.890114 0.606148 0.0807652 1 0 0 
1283 1 0.314449 0.670388 0.0627197 0 0 0 
1295 1 0.319038 0.654455 0.0870608 0 0 0 
3890 1 0.34505 0.676212 0.0547114 0 0 1 
1285 1 0.379739 0.665596 0.0569015 0 0 0 
1287 1 0.374129 0.655559 0.054055 0 0 0 
1289 1 0.378438 0.663376 0.0473834 0 0 0 
1302 1 0.401621 0.677608 0.0623975 0 0 0 
3447 1 0.395308 0.678605 0.0657631 0 0 1 
1290 1 0.413449 0.639441 0.0867743 0 0 0 
947 1 0.588652 0.643892 0.0482069 -1 -1 1 
3003 1 0.738506 0.659437 0.0817438 0 0 0 
2011 1 0.773666 0.656997 0.0852646 0 1 0 
3835 1 0.220814 0.690158 0.0579816 1 0 0 
3840 1 0.21582 0.715251 0.0870608 1 0 0 
1284 1 0.352342 0.707165 0.0864223 0 0 0 
1299 1 0.395272 0.683224 0.0900087 0 0 0 
3477 1 0.420204 0.69628 0.0734849 0 0 1 
3476 1 0.473684 0.703847 0.0526646 0 0 1 
3471 1 0.545311 0.707648 0.0510534 0 0 1 
2067 1 0.546952 0.719195 0.0548964 0 1 0 
925 1 0.61714 0.722996 0.086834 -1 -1 1 
921 1 0.673389 0.708179 0.0722258 -1 -1 1 
923 1 0.673455 0.706085 0.0701372 -1 -1 1 
3013 1 0.637609 0.700446 0.0787064 0 0 0 
3016 1 0.678181 0.723134 0.0867266 0 0 0 
3004 1 0.779794 0.682179 0.0481532 0 0 0 
3005 1 0.80065 0.722847 0.0836773 0 0 0 
3019 1 0.777109 0.705219 0.06047 0 0 0 
2984 1 0.912915 0.694233 0.0639788 0 0 0 
3834 1 0.213671 0.747594 0.0589662 1 0 0 
3836 1 0.219287 0.740708 0.0861478 1 0 0 
3828 1 0.270439 0.767657 0.0592705 1 0 0 
3830 1 0.248879 0.769226 0.0581845 1 0 0 
3838 1 0.243371 0.739884 0.0874129 1 0 0 
3478 1 0.396441 0.748871 0.0779485 0 0 1 
3475 1 0.49229 0.756068 0.0693018 0 0 1 
926 1 0.570493 0.747588 0.0629644 -1 -1 1 
3014 1 0.586748 0.727579 0.073461 0 0 0 
912 1 0.76111 0.762692 0.0655423 -1 -1 1 
1208 1 0.744604 0.770533 0.0746426 0 0 1 
2996 1 0.751449 0.751145 0.0622841 0 0 0 
3007 1 0.753556 0.763127 0.0755556 0 0 0 
3020 1 0.736608 0.739323 0.0838682 0 0 0 
3022 1 0.746956 0.766547 0.063036 0 0 0 
3024 1 0.752028 0.732514 0.068705 0 0 0 
3026 1 0.752696 0.756784 0.0474192 0 0 0 
2993 1 0.778643 0.771792 0.0603685 0 0 0 
2566 1 0.841527 0.73335 0.0891255 0 0 0 
3495 1 0.176029 0.804905 0.0504328 0 0 1 
3837 1 0.233919 0.795208 0.0732641 1 0 0 
3444 1 0.353721 0.784586 0.0531062 0 0 1 
3479 1 0.356943 0.78893 0.064319 0 0 1 
3481 1 0.378838 0.805675 0.0578801 0 0 1 
941 1 0.556649 0.811624 0.051119 -1 -1 1 
3027 1 0.717232 0.801945 0.0547055 0 0 0 
2568 1 0.90619 0.812597 0.0846619 0 0 0 
1743 1 0.922756 0.780039 0.0750484 -1 0 0 
3823 1 0.106956 0.831204 0.0855928 1 0 0 
3493 1 0.215283 0.821286 0.0460169 0 0 1 
3443 1 0.316615 0.828405 0.0457782 0 0 1 
3482 1 0.334351 0.842118 0.0512981 0 0 1 
3488 1 0.319862 0.859674 0.0533986 0 0 1 
910 1 0.744563 0.841736 0.0852885 -1 -1 1 
3031 1 0.771177 0.839904 0.0780142 0 0 0 
2994 1 0.77428 0.828112 0.0729777 0 0 0 
3484 1 0.385127 0.880739 0.0781276 0 0 1 
2324 1 0.815706 0.902681 0.0629465 0 0 0 
3436 1 0.272158 0.910618 0.0695584 0 0 1 
3485 1 0.353524 0.927422 0.0650112 0 0 1 
3034 1 0.699544 0.921765 0.0706802 0 0 0 
1724 1 0.97975 0.93987 0.0499793 -1 0 0 
1726 1 0.964432 0.936188 0.0454798 -1 0 0 
786 1 0.085378 0.995099 0.060834 0 -1 1 
3434 1 0.254113 0.971366 0.056627 0 0 1 
2081 1 0.511225 0.96189 0.0729478 0 0 0 
3036 1 0.735594 0.998428 0.0808785 0 0 0 
1727 1 0.935526 0.986332 0.0460646 -1 0 0 
1733 1 0.937716 0.960864 0.0866132 -1 0 0 
789 1 0.0243015 0.0176001 0.114553 0 0 1 
787 1 0.110077 0.00269942 0.112625 0 0 1 
2792 1 0.13375 0.00608892 0.10849 1 1 0 
2798 1 0.109928 0.0451576 0.118969 1 1 0 
2793 1 0.177927 0.0410997 0.0953376 1 1 0 
1730 1 0.942281 0.00150594 0.0968414 -1 1 0 
2796 1 0.120938 0.0595987 0.112566 1 1 0 
2794 1 0.168349 0.0839995 0.132998 1 1 0 
2801 1 0.142695 0.0658765 0.122627 1 1 0 
2423 1 0.387986 0.0877351 0.122859 0 1 0 
2465 1 0.40553 0.057349 0.11093 0 1 0 
2463 1 0.489766 0.0821138 0.114779 0 1 0 
2470 1 0.463205 0.0857718 0.109152 0 1 0 
2119 1 0.606805 0.0655184 0.114833 0 1 0 
2474 1 0.635556 0.0724824 0.125443 0 1 0 
2320 1 0.770425 0.047837 0.111366 0 1 0 
2803 1 0.158992 0.127305 0.116826 1 1 0 
2438 1 0.467651 0.133589 0.11688 0 1 0 
2449 1 0.508545 0.108335 0.134687 0 1 0 
2472 1 0.551714 0.114045 0.111223 0 1 0 
2120 1 0.649609 0.104462 0.11364 0 1 0 
2126 1 0.689656 0.106216 0.0939949 0 1 0 
2124 1 0.764022 0.113878 0.111814 0 1 0 
2309 1 0.817813 0.125706 0.119398 0 1 0 
2319 1 0.803455 0.0919839 0.128988 0 1 0 
2307 1 0.820134 0.133845 0.125789 0 1 0 
2311 1 0.884421 0.131053 0.11725 0 1 0 
2806 1 0.174764 0.169757 0.105255 1 1 0 
73 2 0.209184 0.1699 0.132747 1 1 0 
2804 1 0.201719 0.166344 0.117751 1 1 0 
3399 1 0.2726 0.177037 0.10192 0 1 1 
3400 1 0.326981 0.170921 0.120777 0 1 1 
2257 1 0.477539 0.168277 0.119297 0 1 0 
2259 1 0.508259 0.163838 0.13622 0 1 0 
2098 1 0.590382 0.140457 0.113097 0 1 0 
2103 1 0.659622 0.136656 0.111808 0 1 0 
74 2 0.165496 0.197112 0.10627 1 1 0 
3398 1 0.226137 0.205413 0.121594 0 1 1 
3395 1 0.264544 0.223249 0.0941083 0 1 1 
534 1 0.46965 0.218708 0.0931834 0 0 0 
522 1 0.608249 0.192272 0.135737 0 0 0 
2100 1 0.604024 0.183273 0.115686 0 1 0 
2101 1 0.653703 0.212943 0.117232 0 1 0 
2132 1 0.643666 0.192016 0.121254 0 1 0 
3396 1 0.291481 0.256189 0.13335 0 1 1 
2813 1 0.044525 0.30113 0.0952123 1 1 0 
3865 1 0.15568 0.306972 0.105405 0 0 1 
532 1 0.460275 0.30332 0.134669 0 0 0 
2814 1 0.0820661 0.342114 0.111372 1 1 0 
3059 1 0.319378 0.347879 0.119595 1 0 0 
2815 1 0.0546876 0.392485 0.119362 1 1 0 
2822 1 0.13255 0.368771 0.118288 1 1 0 
3867 1 0.173057 0.367702 0.0962387 0 0 1 
3058 1 0.280232 0.389716 0.11136 1 0 0 
3063 1 0.3609 0.408084 0.108263 1 0 0 
1651 1 0.909526 0.370782 0.12305 -1 0 0 
1604 1 0.0354188 0.44828 0.109146 0 0 0 
3852 1 0.089943 0.426028 0.132401 0 0 1 
2820 1 0.114875 0.422603 0.122656 1 1 0 
1617 1 0.142003 0.414421 0.124238 0 0 0 
432 1 0.202524 0.43955 0.13409 0 0 0 
436 1 0.189211 0.421111 0.12172 0 0 0 
429 1 0.2495 0.431363 0.114105 0 0 0 
3872 1 0.234277 0.44063 0.103567 0 0 1 
3062 1 0.30582 0.419679 0.121767 1 0 0 
3064 1 0.307324 0.428928 0.115006 1 0 0 
1652 1 0.941314 0.412929 0.0993059 -1 0 0 
424 1 0.177449 0.488626 0.122334 0 0 0 
435 1 0.191544 0.473815 0.0978916 0 0 0 
3873 1 0.240388 0.495238 0.121761 0 0 1 
1656 1 0.907109 0.458938 0.0926523 -1 0 0 
367 1 0.0835519 0.501748 0.101102 0 0 0 
366 1 0.1261 0.537332 0.11765 0 0 0 
364 1 0.162 0.545209 0.107577 0 0 0 
419 1 0.280393 0.523327 0.120031 0 0 0 
416 1 0.359211 0.523852 0.094162 0 0 0 
1757 1 0.0230423 0.582887 0.134687 0 0 0 
1662 1 0.0944246 0.548873 0.100428 0 0 0 
363 1 0.195381 0.587458 0.128815 0 0 0 
420 1 0.240304 0.557908 0.0966325 0 0 0 
415 1 0.319408 0.561393 0.113055 0 0 0 
417 1 0.318585 0.554673 0.121558 0 0 0 
1994 1 0.507316 0.56258 0.122054 0 1 0 
1996 1 0.570332 0.550896 0.118229 0 1 0 
2370 1 0.808939 0.568208 0.111217 0 0 0 
1758 1 0.978378 0.559352 0.106371 -1 0 0 
421 1 0.228053 0.609938 0.118843 0 0 0 
3893 1 0.246283 0.627923 0.104456 0 0 1 
3892 1 0.295276 0.622225 0.134758 0 0 1 
1986 1 0.502566 0.594601 0.13159 0 1 0 
2015 1 0.723653 0.627482 0.123563 0 1 0 
2368 1 0.714857 0.615177 0.0931535 0 0 0 
3162 1 0.697104 0.624612 0.0927358 1 0 0 
3161 1 0.729817 0.591862 0.12749 1 0 0 
3175 1 0.792666 0.630388 0.12749 1 0 0 
3177 1 0.857007 0.635854 0.117805 1 0 0 
1756 1 0.973049 0.592477 0.107135 -1 0 0 
1760 1 0.955147 0.593444 0.13628 -1 0 0 
3894 1 0.192815 0.648511 0.112655 0 0 1 
1282 1 0.305027 0.675961 0.119559 0 0 0 
3891 1 0.303917 0.660679 0.0923658 0 0 1 
1286 1 0.345229 0.664731 0.103364 0 0 0 
1300 1 0.349197 0.67956 0.124846 0 0 0 
1293 1 0.398673 0.645736 0.102863 0 0 0 
1288 1 0.411479 0.676277 0.0931237 0 0 0 
915 1 0.674792 0.665697 0.107243 -1 -1 1 
3163 1 0.662224 0.661902 0.119995 1 0 0 
2367 1 0.745852 0.644728 0.132097 0 0 0 
2999 1 0.764518 0.649567 0.118909 0 0 0 
2998 1 0.807972 0.681535 0.0979155 0 0 0 
3002 1 0.785941 0.65347 0.114368 0 0 0 
3001 1 0.841533 0.667493 0.122328 0 0 0 
2562 1 0.92204 0.674851 0.114278 0 0 0 
1294 1 0.359998 0.688176 0.110196 0 0 0 
1296 1 0.318805 0.700893 0.121612 0 0 0 
1297 1 0.367458 0.726314 0.10325 0 0 0 
1301 1 0.382758 0.7187 0.0985361 0 0 0 
2065 1 0.479007 0.713783 0.124787 0 1 0 
3474 1 0.467824 0.717656 0.105029 0 0 1 
3472 1 0.512555 0.710363 0.0986972 0 0 1 
3015 1 0.627243 0.710435 0.111104 0 0 0 
3165 1 0.654282 0.683325 0.130104 1 0 0 
916 1 0.697265 0.71799 0.0967041 -1 -1 1 
913 1 0.731017 0.726631 0.0993775 -1 -1 1 
3006 1 0.745434 0.708848 0.0939412 0 0 0 
2564 1 0.818565 0.701263 0.0957851 0 0 0 
2563 1 0.867999 0.692801 0.124679 0 0 0 
2565 1 0.867098 0.697993 0.127156 0 0 0 
1753 1 0.999306 0.70516 0.120932 -1 0 0 
1751 1 0.00180431 0.768922 0.100643 0 0 0 
3839 1 0.200096 0.760084 0.120126 1 0 0 
2066 1 0.520337 0.745219 0.0992224 0 1 0 
3473 1 0.500418 0.7641 0.116468 0 0 1 
924 1 0.664396 0.747928 0.109092 -1 -1 1 
3012 1 0.651525 0.728224 0.127544 0 0 0 
920 1 0.704139 0.753323 0.0913931 -1 -1 1 
3023 1 0.703948 0.747934 0.0970085 0 0 0 
919 1 0.746639 0.738261 0.127687 -1 -1 1 
2997 1 0.782354 0.732538 0.107553 0 0 0 
2567 1 0.876395 0.772419 0.113795 0 0 0 
1741 1 0.91637 0.744724 0.13412 -1 0 0 
2569 1 0.920375 0.769274 0.120329 0 0 0 
3822 1 0.103095 0.79932 0.13375 1 0 0 
3824 1 0.144831 0.807835 0.122609 1 0 0 
3826 1 0.218601 0.803312 0.117614 1 0 0 
3829 1 0.260975 0.811809 0.0954868 1 0 0 
3827 1 0.273029 0.809691 0.0989777 1 0 0 
3010 1 0.726917 0.785159 0.115949 0 0 0 
3025 1 0.78023 0.775927 0.0945976 0 0 0 
1744 1 0.895425 0.813785 0.113317 -1 0 0 
1747 1 0.891701 0.808193 0.12638 -1 0 0 
1745 1 0.949776 0.793895 0.11241 -1 0 0 
1742 1 0.954884 0.786424 0.122776 -1 0 0 
1750 1 0.965936 0.814107 0.105357 -1 0 0 
3483 1 0.366891 0.829306 0.0974262 0 0 1 
3009 1 0.753908 0.830744 0.0926105 0 0 0 
1739 1 0.904603 0.838442 0.104521 -1 0 0 
3437 1 0.310612 0.874533 0.093428 0 0 1 
3487 1 0.295694 0.888664 0.097283 0 0 1 
2326 1 0.734161 0.885024 0.129996 0 0 0 
2328 1 0.74322 0.901058 0.128815 0 0 0 
2325 1 0.779746 0.872331 0.0966504 0 0 0 
1738 1 0.897239 0.891636 0.126118 -1 0 0 
3486 1 0.330484 0.930006 0.11805 0 0 1 
2082 1 0.517264 0.92596 0.11793 0 0 0 
2242 1 0.52523 0.938557 0.124775 0 0 0 
3035 1 0.723014 0.952485 0.113759 0 0 0 
1734 1 0.895132 0.926336 0.105208 -1 0 0 
490 1 0.0232631 0.989621 0.125795 1 -1 0 
788 1 0.0614486 0.980025 0.0909157 0 -1 1 
3807 1 0.831114 0.999699 0.130796 0 0 0 
3808 1 0.871836 0.95856 0.130868 0 0 0 
1732 1 0.975358 0.993267 0.116337 -1 0 0 
791 1 0.0100811 0.0283533 0.172007 0 0 1 
2799 1 0.108597 0.012122 0.166481 1 1 0 
2800 1 0.164279 0.0230483 0.155042 1 1 0 
2245 1 0.429322 0.00654841 0.159821 0 1 0 
2251 1 0.441692 0.0253637 0.172813 0 1 0 
2464 1 0.454093 0.0436896 0.139311 0 1 0 
2090 1 0.481322 0.0448652 0.158604 0 1 0 
2111 1 0.717823 0.0287472 0.146896 0 1 0 
3805 1 0.799397 0.0289262 0.165055 0 1 0 
3806 1 0.85669 0.0295647 0.173272 0 1 0 
487 1 0.923126 0.0272792 0.164255 0 0 0 
1731 1 0.943552 0.0309253 0.146675 -1 1 0 
790 1 0.0512265 0.058817 0.144998 0 0 1 
2092 1 0.454683 0.0547472 0.162931 0 1 0 
2094 1 0.518606 0.0682336 0.14103 0 1 0 
2096 1 0.537911 0.0567761 0.172198 0 1 0 
2462 1 0.515623 0.0455037 0.151413 0 1 0 
2473 1 0.579068 0.0705967 0.137945 0 1 0 
2478 1 0.607073 0.0834923 0.181173 0 1 0 
2112 1 0.681762 0.0704415 0.16456 0 1 0 
2118 1 0.642054 0.081899 0.157727 0 1 0 
2123 1 0.757649 0.0716947 0.15093 0 1 0 
2805 1 0.168027 0.127251 0.143966 1 1 0 
2422 1 0.43702 0.0965728 0.15232 0 1 0 
2424 1 0.436775 0.111712 0.142725 0 1 0 
2255 1 0.470038 0.125903 0.16666 0 1 0 
2419 1 0.455382 0.0990732 0.168182 0 1 0 
2436 1 0.483005 0.128564 0.158891 0 1 0 
2439 1 0.486651 0.091972 0.152344 0 1 0 
2446 1 0.537183 0.124614 0.181262 0 1 0 
2471 1 0.505156 0.104635 0.1443 0 1 0 
2097 1 0.565075 0.094711 0.137939 0 1 0 
2448 1 0.553922 0.110889 0.170533 0 1 0 
2476 1 0.56884 0.101639 0.180123 0 1 0 
519 1 0.627583 0.128105 0.171368 0 0 0 
2475 1 0.614377 0.120538 0.14979 0 1 0 
2477 1 0.603403 0.122686 0.138733 0 1 0 
2107 1 0.673885 0.126255 0.17468 0 1 0 
2116 1 0.668568 0.0925866 0.171028 0 1 0 
2104 1 0.700553 0.110847 0.143584 0 1 0 
2121 1 0.698327 0.0992701 0.144467 0 1 0 
2306 1 0.792135 0.109558 0.170247 0 1 0 
2308 1 0.807543 0.0969428 0.16857 0 1 0 
2318 1 0.789396 0.125634 0.17394 0 1 0 
2437 1 0.443572 0.170682 0.15423 0 1 0 
2443 1 0.431607 0.168337 0.153544 0 1 0 
2426 1 0.501438 0.1711 0.165592 0 1 0 
2434 1 0.502673 0.150542 0.155089 0 1 0 
523 1 0.61569 0.151264 0.175904 0 0 0 
2099 1 0.630406 0.148889 0.154063 0 1 0 
518 1 0.655654 0.178476 0.176375 0 0 0 
521 1 0.640455 0.152141 0.162256 0 0 0 
2106 1 0.649281 0.16897 0.144336 0 1 0 
2133 1 0.656525 0.140409 0.144115 0 1 0 
2312 1 0.845979 0.164631 0.144557 0 1 0 
3397 1 0.259698 0.220683 0.166213 0 1 1 
2256 1 0.474304 0.182993 0.175188 0 1 0 
2444 1 0.482426 0.18575 0.175098 0 1 0 
527 1 0.547137 0.201313 0.165335 0 0 0 
2145 1 0.547572 0.215342 0.138888 0 1 0 
2146 1 0.574408 0.183035 0.178726 0 1 0 
2433 1 0.54651 0.185082 0.170455 0 1 0 
2135 1 0.632644 0.212263 0.145219 0 1 0 
2136 1 0.593116 0.190816 0.181668 0 1 0 
2269 1 0.59567 0.198508 0.167513 0 1 0 
2134 1 0.685909 0.189999 0.149432 0 1 0 
2144 1 0.516398 0.25061 0.172586 0 1 0 
2137 1 0.555712 0.231132 0.163605 0 1 0 
2270 1 0.546993 0.229772 0.165616 0 1 0 
1628 1 0.103388 0.292513 0.173362 0 0 0 
531 1 0.506785 0.27408 0.152905 0 0 0 
1633 1 0.99036 0.315971 0.176268 -1 0 0 
1630 1 0.0227857 0.358232 0.153001 0 0 0 
3864 1 0.122364 0.332686 0.145148 0 0 1 
3866 1 0.141895 0.349931 0.141669 0 0 1 
1621 1 0.210246 0.356036 0.158914 0 0 0 
1624 1 0.126571 0.366533 0.169853 0 0 0 
433 1 0.175981 0.402994 0.170282 0 0 0 
1618 1 0.150697 0.40328 0.180373 0 0 0 
3061 1 0.267354 0.379279 0.137223 1 0 0 
3065 1 0.347348 0.401472 0.146538 1 0 0 
1603 1 0.046733 0.442671 0.165634 0 0 0 
3853 1 0.142021 0.411772 0.153257 0 0 1 
1650 1 0.936302 0.410089 0.15605 -1 0 0 
434 1 0.179114 0.45787 0.152129 0 0 0 
1647 1 0.976612 0.458473 0.146759 -1 0 0 
360 1 0.121755 0.539492 0.15747 0 0 0 
3072 1 0.24537 0.514125 0.176864 1 0 0 
1995 1 0.536348 0.530237 0.160281 0 1 0 
1759 1 0.941004 0.538006 0.145082 -1 0 0 
362 1 0.161773 0.556171 0.164064 0 0 0 
365 1 0.145786 0.581139 0.149963 0 0 0 
1993 1 0.508593 0.602634 0.163826 0 1 0 
3160 1 0.774149 0.620524 0.151234 1 0 0 
3176 1 0.832296 0.62855 0.169638 1 0 0 
1755 1 0.975209 0.626557 0.153872 -1 0 0 
1754 1 0.0133035 0.668973 0.163885 0 0 0 
1987 1 0.50262 0.650337 0.147218 0 1 0 
1992 1 0.513665 0.656585 0.143483 0 1 0 
2603 1 0.633509 0.676504 0.167508 0 0 0 
2618 1 0.61541 0.662099 0.173743 0 0 0 
3164 1 0.618614 0.644364 0.153776 1 0 0 
2016 1 0.69443 0.662463 0.159237 0 1 0 
3158 1 0.734543 0.652378 0.153323 1 0 0 
2366 1 0.779365 0.677543 0.166016 0 0 0 
3000 1 0.800817 0.659986 0.162781 0 0 0 
3174 1 0.844254 0.640938 0.151527 1 0 0 
2561 1 0.954174 0.64644 0.153144 0 0 0 
1281 1 0.333503 0.711426 0.155364 0 0 0 
1298 1 0.37025 0.683588 0.1422 0 0 0 
2620 1 0.565349 0.686631 0.161218 0 0 0 
2619 1 0.613357 0.718921 0.162913 0 0 0 
914 1 0.719553 0.685312 0.138261 -1 -1 1 
2030 1 0.69671 0.684632 0.166768 0 1 0 
3157 1 0.700577 0.691232 0.179544 1 0 0 
3166 1 0.691375 0.68638 0.174436 1 0 0 
917 1 0.735725 0.718115 0.139962 -1 -1 1 
2571 1 0.845686 0.694753 0.165646 0 0 0 
2572 1 0.902765 0.68579 0.162095 0 0 0 
1752 1 0.00960969 0.750769 0.155054 0 0 0 
3821 1 0.0649097 0.756945 0.143572 1 0 0 
2064 1 0.512042 0.736011 0.166797 0 1 0 
918 1 0.776399 0.73557 0.177264 -1 -1 1 
2570 1 0.87769 0.734758 0.138703 0 0 0 
1746 1 0.916162 0.758682 0.143721 -1 0 0 
3011 1 0.67987 0.7744 0.147905 0 0 0 
1740 1 0.902347 0.799349 0.147153 -1 0 0 
1748 1 0.912319 0.793293 0.178374 -1 0 0 
3825 1 0.185714 0.840101 0.147869 1 0 0 
2054 1 0.500072 0.860456 0.142683 0 1 0 
2055 1 0.540411 0.829043 0.169829 0 1 0 
2040 1 0.711426 0.863535 0.172568 0 1 0 
2329 1 0.715048 0.859841 0.158115 0 0 0 
1736 1 0.905229 0.845645 0.139144 -1 0 0 
3817 1 0.945432 0.862061 0.178243 0 0 0 
1749 1 0.955976 0.827038 0.16089 -1 0 0 
2041 1 0.675317 0.908774 0.171888 0 1 0 
2327 1 0.778547 0.873172 0.165216 0 0 0 
1735 1 0.86551 0.887667 0.136471 -1 0 0 
1737 1 0.941446 0.884146 0.162734 -1 0 0 
2789 1 0.139144 0.934428 0.152911 1 0 0 
3809 1 0.849309 0.920303 0.168003 0 0 0 
491 1 0.0265034 0.972948 0.181131 1 -1 0 
2791 1 0.149575 0.981553 0.158473 1 0 0 