# Kremer-Grest type Lamellae YS 10/2014
# Number of lamellar layers = 3

     12000    atoms
     11700    bonds
         0    angles
         0    dihedrals

         2    atom types
         2    bond types
         0    angle types
         0    dihedral types

     -11.18033989      11.18033989   xlo xhi
     -11.18033989      11.18033989   ylo yhi
     -16.61764706      16.61764706   zlo zhi

Atoms

     1      1  1   -6.6960   -9.0601  -13.2047      0      0      0
     2      1  1   -7.2515   -8.6125  -13.8619      0      0      0
     3      1  1   -6.9177   -8.9508  -14.7075      0      0      0
     4      1  1   -7.4494   -9.0809  -13.9067      0      0      0
     5      1  1   -7.3619   -9.7707  -14.5831      0      0      0
     6      1  1   -7.2555  -10.6232  -15.0335      0      0      0
     7      1  1   -6.7207   10.9605  -14.8071      0     -1      0
     8      1  1   -5.9190   11.1554  -15.3172      0     -1      0
     9      1  1   -6.5513  -10.9412  -14.6307      0      0      0
    10      1  1   -6.3430  -10.6665  -13.7240      0      0      0
    11      1  1   -6.0573   -9.8739  -14.2046      0      0      0
    12      1  1   -5.6586  -10.6340  -13.7529      0      0      0
    13      1  1   -5.7788  -10.0024  -14.4792      0      0      0
    14      1  1   -6.4481   -9.3021  -14.5294      0      0      0
    15      1  1   -5.9957   -9.9845  -15.0495      0      0      0
    16      1  1   -6.2226  -10.7812  -14.5448      0      0      0
    17      1  1   -6.8566   10.8715  -14.3504      0     -1      0
    18      1  1   -6.4174   10.7466  -15.2063      0     -1      0
    19      1  1   -6.6895  -10.9089  -15.8143      0      0      0
    20      1  1   -7.0001  -10.4628  -16.6176      0      0      0
    21      1  2   -7.0001  -10.4628   15.6176      0      0     -1
    22      1  2   -6.6895  -10.9089   14.8143      0      0     -1
    23      1  2   -6.4174   10.7466   14.2063      0     -1     -1
    24      1  2   -6.8566   10.8715   13.3504      0     -1     -1
    25      1  2   -6.2226  -10.7812   13.5448      0      0     -1
    26      1  2   -5.9957   -9.9845   14.0495      0      0     -1
    27      1  2   -6.4481   -9.3021   13.5294      0      0     -1
    28      1  2   -5.7788  -10.0024   13.4792      0      0     -1
    29      1  2   -5.6586  -10.6340   12.7529      0      0     -1
    30      1  2   -6.0573   -9.8739   13.2046      0      0     -1
    31      1  2   -6.3430  -10.6665   12.7240      0      0     -1
    32      1  2   -6.5513  -10.9412   13.6307      0      0     -1
    33      1  2   -5.9190   11.1554   14.3172      0     -1     -1
    34      1  2   -6.7207   10.9605   13.8071      0     -1     -1
    35      1  2   -7.2555  -10.6232   14.0335      0      0     -1
    36      1  2   -7.3619   -9.7707   13.5831      0      0     -1
    37      1  2   -7.4494   -9.0809   12.9067      0      0     -1
    38      1  2   -6.9177   -8.9508   13.7075      0      0     -1
    39      1  2   -7.2515   -8.6125   12.8619      0      0     -1
    40      1  2   -6.6960   -9.0601   12.2047      0      0     -1
    41      2  1    4.2690   10.4593  -15.8166      0     -1      0
    42      2  1    3.6866  -11.1348  -15.6977      0      0      0
    43      2  1    2.8597   10.8426  -15.3657      0     -1      0
    44      2  1    1.9920  -11.0891  -15.3028      0      0      0
    45      2  1    2.1598  -10.4530  -14.5900      0      0      0
    46      2  1    1.7823   -9.5899  -14.3591      0      0      0
    47      2  1    2.2236  -10.1142  -15.0456      0      0      0
    48      2  1    2.8765   -9.4020  -15.1314      0      0      0
    49      2  1    2.7443   -9.1732  -16.0647      0      0      0
    50      2  1    3.1390   -9.5682  -15.2716      0      0      0
    51      2  1    2.9140  -10.1478  -14.5271      0      0      0
    52      2  1    2.2841   -9.8421  -13.8558      0      0      0
    53      2  1    2.3592   -9.0747  -14.4443      0      0      0
    54      2  1    2.3508   -8.1130  -14.3174      0      0      0
    55      2  1    1.4662   -8.1363  -14.7147      0      0      0
    56      2  1    1.7335   -7.2696  -15.0585      0      0      0
    57      2  1    1.2740   -7.6994  -15.7968      0      0      0
    58      2  1    1.2071   -8.5292  -16.2946      0      0      0
    59      2  1    1.1826   -7.5883  -16.0602      0      0      0
    60      2  1    1.7198   -7.0039  -16.6176      0      0      0
    61      2  2    1.7198   -7.0039   15.6176      0      0     -1
    62      2  2    1.1826   -7.5883   15.0602      0      0     -1
    63      2  2    1.2071   -8.5292   15.2946      0      0     -1
    64      2  2    1.2740   -7.6994   14.7968      0      0     -1
    65      2  2    1.7335   -7.2696   14.0585      0      0     -1
    66      2  2    1.4662   -8.1363   13.7147      0      0     -1
    67      2  2    2.3508   -8.1130   13.3174      0      0     -1
    68      2  2    2.3592   -9.0747   13.4443      0      0     -1
    69      2  2    2.2841   -9.8421   12.8558      0      0     -1
    70      2  2    2.9140  -10.1478   13.5271      0      0     -1
    71      2  2    3.1390   -9.5682   14.2716      0      0     -1
    72      2  2    2.7443   -9.1732   15.0647      0      0     -1
    73      2  2    2.8765   -9.4020   14.1314      0      0     -1
    74      2  2    2.2236  -10.1142   14.0456      0      0     -1
    75      2  2    1.7823   -9.5899   13.3591      0      0     -1
    76      2  2    2.1598  -10.4530   13.5900      0      0     -1
    77      2  2    1.9920  -11.0891   14.3028      0      0     -1
    78      2  2    2.8597   10.8426   14.3657      0     -1     -1
    79      2  2    3.6866  -11.1348   14.6977      0      0     -1
    80      2  2    4.2690   10.4593   14.8166      0     -1     -1
    81      3  1   -7.8113    2.4326  -13.7341      0      0      0
    82      3  1   -7.6621    2.9999  -14.5067      0      0      0
    83      3  1   -7.5916    2.0740  -14.2264      0      0      0
    84      3  1   -7.0380    2.3467  -14.9748      0      0      0
    85      3  1   -7.5320    2.5920  -14.1768      0      0      0
    86      3  1   -7.0192    3.1441  -14.7877      0      0      0
    87      3  1   -7.2474    2.5039  -15.4798      0      0      0
    88      3  1   -6.9307    2.1033  -16.3045      0      0      0
    89      3  1   -7.1634    2.7596  -15.6292      0      0      0
    90      3  1   -7.2553    1.8423  -15.3277      0      0      0
    91      3  1   -7.0580    2.7859  -15.2200      0      0      0
    92      3  1   -6.7694    2.0379  -14.6740      0      0      0
    93      3  1   -6.0934    1.5763  -14.1535      0      0      0
    94      3  1   -5.6742    1.6715  -15.0231      0      0      0
    95      3  1   -5.3137    2.0742  -15.8285      0      0      0
    96      3  1   -5.4955    2.7753  -16.4737      0      0      0
    97      3  1   -5.6829    1.9741  -15.9601      0      0      0
    98      3  1   -5.2658    1.2370  -15.4873      0      0      0
    99      3  1   -4.3772    1.3144  -15.8685      0      0      0
   100      3  1   -3.7967    1.1076  -16.6176      0      0      0
   101      3  2   -3.7967    1.1076   15.6176      0      0     -1
   102      3  2   -4.3772    1.3144   14.8685      0      0     -1
   103      3  2   -5.2658    1.2370   14.4873      0      0     -1
   104      3  2   -5.6829    1.9741   14.9601      0      0     -1
   105      3  2   -5.4955    2.7753   15.4737      0      0     -1
   106      3  2   -5.3137    2.0742   14.8285      0      0     -1
   107      3  2   -5.6742    1.6715   14.0231      0      0     -1
   108      3  2   -6.0934    1.5763   13.1535      0      0     -1
   109      3  2   -6.7694    2.0379   13.6740      0      0     -1
   110      3  2   -7.0580    2.7859   14.2200      0      0     -1
   111      3  2   -7.2553    1.8423   14.3277      0      0     -1
   112      3  2   -7.1634    2.7596   14.6292      0      0     -1
   113      3  2   -6.9307    2.1033   15.3045      0      0     -1
   114      3  2   -7.2474    2.5039   14.4798      0      0     -1
   115      3  2   -7.0192    3.1441   13.7877      0      0     -1
   116      3  2   -7.5320    2.5920   13.1768      0      0     -1
   117      3  2   -7.0380    2.3467   13.9748      0      0     -1
   118      3  2   -7.5916    2.0740   13.2264      0      0     -1
   119      3  2   -7.6621    2.9999   13.5067      0      0     -1
   120      3  2   -7.8113    2.4326   12.7341      0      0     -1
   121      4  1   11.0765    5.3332  -15.2305      0     -1      0
   122      4  1   11.0427    6.2972  -15.1280      0     -1      0
   123      4  1   10.7452    6.0142  -14.2491      0     -1      0
   124      4  1    9.9817    6.6107  -14.2016      0     -1      0
   125      4  1    9.6678    6.0951  -14.9609      0     -1      0
   126      4  1    8.8906    6.2472  -14.4008      0     -1      0
   127      4  1    9.0832    6.6028  -15.2825      0     -1      0
   128      4  1    9.2882    7.2756  -15.9505      0     -1      0
   129      4  1    9.6569    7.9287  -15.3353      0     -1      0
   130      4  1    8.7071    7.8817  -15.5267      0     -1      0
   131      4  1    8.4194    8.8051  -15.6012      0     -1      0
   132      4  1    8.8630    8.6917  -16.4564      0     -1      0
   133      4  1    8.4887    9.3233  -15.8225      0     -1      0
   134      4  1    9.0828    9.9428  -16.2744      0     -1      0
   135      4  1    8.2775   10.3970  -15.9810      0     -1      0
   136      4  1    7.9645  -11.1192  -16.3412      0      0      0
   137      4  1    8.8818  -10.8044  -16.3248      0      0      0
   138      4  1    8.6092  -10.7746  -15.3944      0      0      0
   139      4  1    9.0041   10.9646  -16.0259      0     -1      0
   140      4  1    9.7116  -11.0957  -16.6176      0      0      0
   141      4  2    9.7116  -11.0957   15.6176      0      0     -1
   142      4  2    9.0041   10.9646   15.0259      0     -1     -1
   143      4  2    8.6092  -10.7746   14.3944      0      0     -1
   144      4  2    8.8818  -10.8044   15.3248      0      0     -1
   145      4  2    7.9645  -11.1192   15.3412      0      0     -1
   146      4  2    8.2775   10.3970   14.9810      0     -1     -1
   147      4  2    9.0828    9.9428   15.2744      0     -1     -1
   148      4  2    8.4887    9.3233   14.8225      0     -1     -1
   149      4  2    8.8630    8.6917   15.4564      0     -1     -1
   150      4  2    8.4194    8.8051   14.6012      0     -1     -1
   151      4  2    8.7071    7.8817   14.5267      0     -1     -1
   152      4  2    9.6569    7.9287   14.3353      0     -1     -1
   153      4  2    9.2882    7.2756   14.9505      0     -1     -1
   154      4  2    9.0832    6.6028   14.2825      0     -1     -1
   155      4  2    8.8906    6.2472   13.4008      0     -1     -1
   156      4  2    9.6678    6.0951   13.9609      0     -1     -1
   157      4  2    9.9817    6.6107   13.2016      0     -1     -1
   158      4  2   10.7452    6.0142   13.2491      0     -1     -1
   159      4  2   11.0427    6.2972   14.1280      0     -1     -1
   160      4  2   11.0765    5.3332   14.2305      0     -1     -1
   161      5  1    8.0703   -6.5005  -14.5061      0      0      0
   162      5  1    8.9351   -6.1496  -14.2418      0      0      0
   163      5  1    9.3798   -6.4813  -13.4461      0      0      0
   164      5  1    9.5929   -6.2065  -14.3516      0      0      0
   165      5  1   10.3477   -5.8472  -13.8595      0      0      0
   166      5  1  -11.0793   -5.7948  -14.1169      1      0      0
   167      5  1  -10.6506   -6.3018  -13.4097      1      0      0
   168      5  1  -10.2142   -6.0815  -14.2475      1      0      0
   169      5  1  -10.9818   -5.7531  -14.7414      1      0      0
   170      5  1   10.8273   -6.4027  -15.2045      0      0      0
   171      5  1   10.5653   -7.2900  -14.9129      0      0      0
   172      5  1   10.1774   -8.0701  -14.4863      0      0      0
   173      5  1   10.0998   -8.9308  -14.9267      0      0      0
   174      5  1   10.5271   -9.6984  -14.5155      0      0      0
   175      5  1    9.6955   -9.2366  -14.3256      0      0      0
   176      5  1    9.8643   -8.3671  -14.7212      0      0      0
   177      5  1    9.8457   -7.5505  -15.2443      0      0      0
   178      5  1    8.9271   -7.3859  -15.5090      0      0      0
   179      5  1    9.6882   -6.9057  -15.8710      0      0      0
   180      5  1    9.3297   -7.4106  -16.6176      0      0      0
   181      5  2    9.3297   -7.4106   15.6176      0      0     -1
   182      5  2    9.6882   -6.9057   14.8710      0      0     -1
   183      5  2    8.9271   -7.3859   14.5090      0      0     -1
   184      5  2    9.8457   -7.5505   14.2443      0      0     -1
   185      5  2    9.8643   -8.3671   13.7212      0      0     -1
   186      5  2    9.6955   -9.2366   13.3256      0      0     -1
   187      5  2   10.5271   -9.6984   13.5155      0      0     -1
   188      5  2   10.0998   -8.9308   13.9267      0      0     -1
   189      5  2   10.1774   -8.0701   13.4863      0      0     -1
   190      5  2   10.5653   -7.2900   13.9129      0      0     -1
   191      5  2   10.8273   -6.4027   14.2045      0      0     -1
   192      5  2  -10.9818   -5.7531   13.7414      1      0     -1
   193      5  2  -10.2142   -6.0815   13.2475      1      0     -1
   194      5  2  -10.6506   -6.3018   12.4097      1      0     -1
   195      5  2  -11.0793   -5.7948   13.1169      1      0     -1
   196      5  2   10.3477   -5.8472   12.8595      0      0     -1
   197      5  2    9.5929   -6.2065   13.3516      0      0     -1
   198      5  2    9.3798   -6.4813   12.4461      0      0     -1
   199      5  2    8.9351   -6.1496   13.2418      0      0     -1
   200      5  2    8.0703   -6.5005   13.5061      0      0     -1
   201      6  1    9.5573    0.1188  -15.2925      0      0      0
   202      6  1    9.4250   -0.2281  -14.3964      0      0      0
   203      6  1   10.2229    0.1848  -14.0307      0      0      0
   204      6  1    9.6807   -0.3379  -14.6420      0      0      0
   205      6  1    9.1757   -0.9050  -15.2455      0      0      0
   206      6  1    9.8722   -0.3203  -15.5831      0      0      0
   207      6  1   10.5117   -0.0394  -16.2562      0      0      0
   208      6  1   10.6593   -0.5441  -15.4411      0      0      0
   209      6  1  -10.8827   -0.1034  -15.7177      1      0      0
   210      6  1   10.9451    0.4350  -15.1119      0      0      0
   211      6  1   10.1365    0.4700  -15.6466      0      0      0
   212      6  1   10.1032    0.7152  -16.5845      0      0      0
   213      6  1   10.7446   -0.0122  -16.6031      0      0      0
   214      6  1   10.8827    0.7303  -15.9944      0      0      0
   215      6  1  -11.1387   -0.1441  -16.2419      1      0      0
   216      6  1   10.3423    0.2330  -16.3997      0      0      0
   217      6  1   11.0728   -0.3088  -16.0626      0      0      0
   218      6  1   10.5336   -0.0647  -15.2942      0      0      0
   219      6  1   11.0243   -0.8093  -15.6759      0      0      0
   220      6  1   10.7951   -0.8484  -16.6176      0      0      0
   221      6  2   10.7951   -0.8484   15.6176      0      0     -1
   222      6  2   11.0243   -0.8093   14.6759      0      0     -1
   223      6  2   10.5336   -0.0647   14.2942      0      0     -1
   224      6  2   11.0728   -0.3088   15.0626      0      0     -1
   225      6  2   10.3423    0.2330   15.3997      0      0     -1
   226      6  2  -11.1387   -0.1441   15.2419      1      0     -1
   227      6  2   10.8827    0.7303   14.9944      0      0     -1
   228      6  2   10.7446   -0.0122   15.6031      0      0     -1
   229      6  2   10.1032    0.7152   15.5845      0      0     -1
   230      6  2   10.1365    0.4700   14.6466      0      0     -1
   231      6  2   10.9451    0.4350   14.1119      0      0     -1
   232      6  2  -10.8827   -0.1034   14.7177      1      0     -1
   233      6  2   10.6593   -0.5441   14.4411      0      0     -1
   234      6  2   10.5117   -0.0394   15.2562      0      0     -1
   235      6  2    9.8722   -0.3203   14.5831      0      0     -1
   236      6  2    9.1757   -0.9050   14.2455      0      0     -1
   237      6  2    9.6807   -0.3379   13.6420      0      0     -1
   238      6  2   10.2229    0.1848   13.0307      0      0     -1
   239      6  2    9.4250   -0.2281   13.3964      0      0     -1
   240      6  2    9.5573    0.1188   14.2925      0      0     -1
   241      7  1    7.4513   -9.7897  -15.0171      0      0      0
   242      7  1    7.7192   -9.2451  -14.2604      0      0      0
   243      7  1    7.6588  -10.1758  -13.9938      0      0      0
   244      7  1    7.1497  -10.9769  -13.7938      0      0      0
   245      7  1    6.4596  -11.1181  -13.1269      0      0      0
   246      7  1    7.2393  -11.0118  -13.6941      0      0      0
   247      7  1    8.1882  -11.0418  -13.4947      0      0      0
   248      7  1    7.5769   10.6415  -13.8240      0     -1      0
   249      7  1    8.4082   11.0704  -14.0809      0     -1      0
   250      7  1    8.4414  -10.5384  -14.6928      0      0      0
   251      7  1    9.3246  -10.9322  -14.6167      0      0      0
   252      7  1    9.9466  -11.1394  -13.9018      0      0      0
   253      7  1    9.4139  -11.1651  -14.7120      0      0      0
   254      7  1    8.8700  -10.4119  -14.4331      0      0      0
   255      7  1    9.5761   -9.9813  -14.9399      0      0      0
   256      7  1    8.7600   -9.9743  -15.4642      0      0      0
   257      7  1    7.9581  -10.5169  -15.4052      0      0      0
   258      7  1    7.2337   -9.9358  -15.6852      0      0      0
   259      7  1    7.0276  -10.1130  -16.6163      0      0      0
   260      7  1    7.4675  -10.9776  -16.6176      0      0      0
   261      7  2    7.4675  -10.9776   15.6176      0      0     -1
   262      7  2    7.0276  -10.1130   15.6163      0      0     -1
   263      7  2    7.2337   -9.9358   14.6852      0      0     -1
   264      7  2    7.9581  -10.5169   14.4052      0      0     -1
   265      7  2    8.7600   -9.9743   14.4642      0      0     -1
   266      7  2    9.5761   -9.9813   13.9399      0      0     -1
   267      7  2    8.8700  -10.4119   13.4331      0      0     -1
   268      7  2    9.4139  -11.1651   13.7120      0      0     -1
   269      7  2    9.9466  -11.1394   12.9018      0      0     -1
   270      7  2    9.3246  -10.9322   13.6167      0      0     -1
   271      7  2    8.4414  -10.5384   13.6928      0      0     -1
   272      7  2    8.4082   11.0704   13.0809      0     -1     -1
   273      7  2    7.5769   10.6415   12.8240      0     -1     -1
   274      7  2    8.1882  -11.0418   12.4947      0      0     -1
   275      7  2    7.2393  -11.0118   12.6941      0      0     -1
   276      7  2    6.4596  -11.1181   12.1269      0      0     -1
   277      7  2    7.1497  -10.9769   12.7938      0      0     -1
   278      7  2    7.6588  -10.1758   12.9938      0      0     -1
   279      7  2    7.7192   -9.2451   13.2604      0      0     -1
   280      7  2    7.4513   -9.7897   14.0171      0      0     -1
   281      8  1   -9.1293   -6.1878  -15.8581      1      0      0
   282      8  1   -9.8071   -5.5150  -15.6884      1      0      0
   283      8  1  -10.5071   -6.0249  -15.2516      1      0      0
   284      8  1   10.9266   -6.3080  -15.2118      0      0      0
   285      8  1   10.4549   -6.5081  -16.0354      0      0      0
   286      8  1   10.0756   -7.0286  -15.3100      0      0      0
   287      8  1   10.6751   -6.6358  -15.9636      0      0      0
   288      8  1  -10.8680   -6.9910  -15.5810      1      0      0
   289      8  1   11.1685   -7.8807  -15.3708      0      0      0
   290      8  1   10.7887   -6.9950  -15.2605      0      0      0
   291      8  1   10.3543   -6.3806  -14.6484      0      0      0
   292      8  1   10.4164   -5.6819  -15.3184      0      0      0
   293      8  1    9.7675   -6.1038  -14.7338      0      0      0
   294      8  1    9.7219   -5.1532  -14.9214      0      0      0
   295      8  1   10.5289   -4.8494  -14.4772      0      0      0
   296      8  1    9.7984   -4.5161  -15.0214      0      0      0
   297      8  1    9.1166   -3.8393  -15.1550      0      0      0
   298      8  1    8.1835   -3.7109  -14.9231      0      0      0
   299      8  1    8.2892   -3.3446  -15.8151      0      0      0
   300      8  1    8.7727   -3.0938  -16.6176      0      0      0
   301      8  2    8.7727   -3.0938   15.6176      0      0     -1
   302      8  2    8.2892   -3.3446   14.8151      0      0     -1
   303      8  2    8.1835   -3.7109   13.9231      0      0     -1
   304      8  2    9.1166   -3.8393   14.1550      0      0     -1
   305      8  2    9.7984   -4.5161   14.0214      0      0     -1
   306      8  2   10.5289   -4.8494   13.4772      0      0     -1
   307      8  2    9.7219   -5.1532   13.9214      0      0     -1
   308      8  2    9.7675   -6.1038   13.7338      0      0     -1
   309      8  2   10.4164   -5.6819   14.3184      0      0     -1
   310      8  2   10.3543   -6.3806   13.6484      0      0     -1
   311      8  2   10.7887   -6.9950   14.2605      0      0     -1
   312      8  2   11.1685   -7.8807   14.3708      0      0     -1
   313      8  2  -10.8680   -6.9910   14.5810      1      0     -1
   314      8  2   10.6751   -6.6358   14.9636      0      0     -1
   315      8  2   10.0756   -7.0286   14.3100      0      0     -1
   316      8  2   10.4549   -6.5081   15.0354      0      0     -1
   317      8  2   10.9266   -6.3080   14.2118      0      0     -1
   318      8  2  -10.5071   -6.0249   14.2516      1      0     -1
   319      8  2   -9.8071   -5.5150   14.6884      1      0     -1
   320      8  2   -9.1293   -6.1878   14.8581      1      0     -1
   321      9  1   -9.7216   -2.2520  -13.9186      0      0      0
   322      9  1   -8.8574   -2.1050  -13.5033      0      0      0
   323      9  1   -9.5556   -2.3626  -12.8810      0      0      0
   324      9  1   -8.9232   -2.8892  -12.3675      0      0      0
   325      9  1   -8.0254   -2.6891  -12.6754      0      0      0
   326      9  1   -8.1030   -1.7259  -12.5906      0      0      0
   327      9  1   -8.3719   -1.2383  -13.3848      0      0      0
   328      9  1   -8.4035   -2.1709  -13.1202      0      0      0
   329      9  1   -7.6761   -2.7406  -13.4155      0      0      0
   330      9  1   -7.7667   -2.8507  -14.3750      0      0      0
   331      9  1   -7.6750   -1.9354  -14.0671      0      0      0
   332      9  1   -7.6820   -1.2394  -14.7427      0      0      0
   333      9  1   -6.8050   -1.6525  -14.7102      0      0      0
   334      9  1   -6.7349   -2.5853  -14.9669      0      0      0
   335      9  1   -6.9489   -3.2228  -15.6660      0      0      0
   336      9  1   -7.3852   -4.0847  -15.7534      0      0      0
   337      9  1   -6.5764   -4.3324  -16.2281      0      0      0
   338      9  1   -6.2954   -4.3426  -15.2997      0      0      0
   339      9  1   -6.7657   -3.6314  -15.7622      0      0      0
   340      9  1   -6.5019   -3.2580  -16.6176      0      0      0
   341      9  2   -6.5019   -3.2580   15.6176      0      0     -1
   342      9  2   -6.7657   -3.6314   14.7622      0      0     -1
   343      9  2   -6.2954   -4.3426   14.2997      0      0     -1
   344      9  2   -6.5764   -4.3324   15.2281      0      0     -1
   345      9  2   -7.3852   -4.0847   14.7534      0      0     -1
   346      9  2   -6.9489   -3.2228   14.6660      0      0     -1
   347      9  2   -6.7349   -2.5853   13.9669      0      0     -1
   348      9  2   -6.8050   -1.6525   13.7102      0      0     -1
   349      9  2   -7.6820   -1.2394   13.7427      0      0     -1
   350      9  2   -7.6750   -1.9354   13.0671      0      0     -1
   351      9  2   -7.7667   -2.8507   13.3750      0      0     -1
   352      9  2   -7.6761   -2.7406   12.4155      0      0     -1
   353      9  2   -8.4035   -2.1709   12.1202      0      0     -1
   354      9  2   -8.3719   -1.2383   12.3848      0      0     -1
   355      9  2   -8.1030   -1.7259   11.5906      0      0     -1
   356      9  2   -8.0254   -2.6891   11.6754      0      0     -1
   357      9  2   -8.9232   -2.8892   11.3675      0      0     -1
   358      9  2   -9.5556   -2.3626   11.8810      0      0     -1
   359      9  2   -8.8574   -2.1050   12.5033      0      0     -1
   360      9  2   -9.7216   -2.2520   12.9186      0      0     -1
   361     10  1   10.4676    0.3645  -13.7794      0      0      0
   362     10  1    9.6333    0.8591  -13.7927      0      0      0
   363     10  1    8.7182    0.7379  -14.0909      0      0      0
   364     10  1    7.8647    0.9632  -13.6889      0      0      0
   365     10  1    7.7502    1.8456  -13.3028      0      0      0
   366     10  1    8.0014    2.1393  -14.1925      0      0      0
   367     10  1    8.1907    1.3847  -14.7718      0      0      0
   368     10  1    8.5992    0.8560  -14.0686      0      0      0
   369     10  1    8.5191    0.9011  -15.0342      0      0      0
   370     10  1    8.2653    0.7144  -15.9517      0      0      0
   371     10  1    7.6829    1.4430  -15.6853      0      0      0
   372     10  1    8.3295    0.8661  -16.1213      0      0      0
   373     10  1    8.1932   -0.0793  -15.9528      0      0      0
   374     10  1    8.9658   -0.6657  -15.9445      0      0      0
   375     10  1    9.2441   -0.8978  -15.0448      0      0      0
   376     10  1    9.9903   -1.2200  -15.5741      0      0      0
   377     10  1    9.6705   -2.1195  -15.7460      0      0      0
   378     10  1    9.5433   -1.3592  -16.3348      0      0      0
   379     10  1   10.0408   -0.5579  -16.1082      0      0      0
   380     10  1   10.7661   -0.1638  -16.6176      0      0      0
   381     10  2   10.7661   -0.1638   15.6176      0      0     -1
   382     10  2   10.0408   -0.5579   15.1082      0      0     -1
   383     10  2    9.5433   -1.3592   15.3348      0      0     -1
   384     10  2    9.6705   -2.1195   14.7460      0      0     -1
   385     10  2    9.9903   -1.2200   14.5741      0      0     -1
   386     10  2    9.2441   -0.8978   14.0448      0      0     -1
   387     10  2    8.9658   -0.6657   14.9445      0      0     -1
   388     10  2    8.1932   -0.0793   14.9528      0      0     -1
   389     10  2    8.3295    0.8661   15.1213      0      0     -1
   390     10  2    7.6829    1.4430   14.6853      0      0     -1
   391     10  2    8.2653    0.7144   14.9517      0      0     -1
   392     10  2    8.5191    0.9011   14.0342      0      0     -1
   393     10  2    8.5992    0.8560   13.0686      0      0     -1
   394     10  2    8.1907    1.3847   13.7718      0      0     -1
   395     10  2    8.0014    2.1393   13.1925      0      0     -1
   396     10  2    7.7502    1.8456   12.3028      0      0     -1
   397     10  2    7.8647    0.9632   12.6889      0      0     -1
   398     10  2    8.7182    0.7379   13.0909      0      0     -1
   399     10  2    9.6333    0.8591   12.7927      0      0     -1
   400     10  2   10.4676    0.3645   12.7794      0      0     -1
   401     11  1   -7.1952    7.3709  -14.0301      0      0      0
   402     11  1   -8.0229    6.9978  -14.3714      0      0      0
   403     11  1   -8.4887    7.5032  -15.0559      0      0      0
   404     11  1   -8.5114    7.7046  -16.0045      0      0      0
   405     11  1   -9.2424    8.2807  -15.7311      0      0      0
   406     11  1   -9.2433    8.7012  -14.8570      0      0      0
   407     11  1   -9.5877    8.3892  -14.0055      0      0      0
   408     11  1  -10.4527    8.2794  -14.4304      0      0      0
   409     11  1  -10.3393    8.2067  -15.3911      0      0      0
   410     11  1  -10.3472    7.7534  -16.2486      0      0      0
   411     11  1  -10.9086    8.2616  -15.6423      0      0      0
   412     11  1  -10.5766    7.6500  -14.9666      0      0      0
   413     11  1  -10.9286    6.7522  -15.0707      0      0      0
   414     11  1   10.7274    6.3596  -14.5320     -1      0      0
   415     11  1   10.2007    5.9562  -15.2396     -1      0      0
   416     11  1   10.9359    6.5889  -15.2462     -1      0      0
   417     11  1   11.0282    7.2065  -15.9884     -1      0      0
   418     11  1  -10.3751    7.0743  -15.9059      0      0      0
   419     11  1  -10.7154    6.2971  -16.3762      0      0      0
   420     11  1  -10.4235    7.1901  -16.6176      0      0      0
   421     11  2  -10.4235    7.1901   15.6176      0      0     -1
   422     11  2  -10.7154    6.2971   15.3762      0      0     -1
   423     11  2  -10.3751    7.0743   14.9059      0      0     -1
   424     11  2   11.0282    7.2065   14.9884     -1      0     -1
   425     11  2   10.9359    6.5889   14.2462     -1      0     -1
   426     11  2   10.2007    5.9562   14.2396     -1      0     -1
   427     11  2   10.7274    6.3596   13.5320     -1      0     -1
   428     11  2  -10.9286    6.7522   14.0707      0      0     -1
   429     11  2  -10.5766    7.6500   13.9666      0      0     -1
   430     11  2  -10.9086    8.2616   14.6423      0      0     -1
   431     11  2  -10.3472    7.7534   15.2486      0      0     -1
   432     11  2  -10.3393    8.2067   14.3911      0      0     -1
   433     11  2  -10.4527    8.2794   13.4304      0      0     -1
   434     11  2   -9.5877    8.3892   13.0055      0      0     -1
   435     11  2   -9.2433    8.7012   13.8570      0      0     -1